 Entering Gaussian System, Link 0=g03
 Initial command:
 /usr/local/g03-em64t/g03/l1.exe /usr/scratch/NQCaaa-bbb-depW3/Gau-18903.inp -scrdir=/usr/scratch/NQCaaa-bbb-depW3/
 Entering Link 1 = /usr/local/g03-em64t/g03/l1.exe PID=     18904.
  
 Copyright (c) 1988,1990,1992,1993,1995,1998,2003,2004, Gaussian, Inc.
                  All Rights Reserved.
  
 This is the Gaussian(R) 03 program.  It is based on the
 the Gaussian(R) 98 system (copyright 1998, Gaussian, Inc.),
 the Gaussian(R) 94 system (copyright 1995, Gaussian, Inc.),
 the Gaussian 92(TM) system (copyright 1992, Gaussian, Inc.),
 the Gaussian 90(TM) system (copyright 1990, Gaussian, Inc.),
 the Gaussian 88(TM) system (copyright 1988, Gaussian, Inc.),
 the Gaussian 86(TM) system (copyright 1986, Carnegie Mellon
 University), and the Gaussian 82(TM) system (copyright 1983,
 Carnegie Mellon University). Gaussian is a federally registered
 trademark of Gaussian, Inc.
  
 This software contains proprietary and confidential information,
 including trade secrets, belonging to Gaussian, Inc.
  
 This software is provided under written license and may be
 used, copied, transmitted, or stored only in accord with that
 written license.
  
 The following legend is applicable only to US Government
 contracts under FAR:
  
                    RESTRICTED RIGHTS LEGEND
  
 Use, reproduction and disclosure by the US Government is
 subject to restrictions as set forth in subparagraphs (a)
 and (c) of the Commercial Computer Software - Restricted
 Rights clause in FAR 52.227-19.
  
 Gaussian, Inc.
 340 Quinnipiac St., Bldg. 40, Wallingford CT 06492
  
  
 ---------------------------------------------------------------
 Warning -- This program may not be used in any manner that
 competes with the business of Gaussian, Inc. or will provide
 assistance to any competitor of Gaussian, Inc.  The licensee
 of this program is prohibited from giving any competitor of
 Gaussian, Inc. access to this program.  By using this program,
 the user acknowledges that Gaussian, Inc. is engaged in the
 business of creating and licensing software in the field of
 computational chemistry and represents and warrants to the
 licensee that it is not a competitor of Gaussian, Inc. and that
 it will not use this program in any manner prohibited above.
 ---------------------------------------------------------------
  

 Cite this work as:
 Gaussian 03, Revision D.01,
 M. J. Frisch, G. W. Trucks, H. B. Schlegel, G. E. Scuseria, 
 M. A. Robb, J. R. Cheeseman, J. A. Montgomery, Jr., T. Vreven, 
 K. N. Kudin, J. C. Burant, J. M. Millam, S. S. Iyengar, J. Tomasi, 
 V. Barone, B. Mennucci, M. Cossi, G. Scalmani, N. Rega, 
 G. A. Petersson, H. Nakatsuji, M. Hada, M. Ehara, K. Toyota, 
 R. Fukuda, J. Hasegawa, M. Ishida, T. Nakajima, Y. Honda, O. Kitao, 
 H. Nakai, M. Klene, X. Li, J. E. Knox, H. P. Hratchian, J. B. Cross, 
 V. Bakken, C. Adamo, J. Jaramillo, R. Gomperts, R. E. Stratmann, 
 O. Yazyev, A. J. Austin, R. Cammi, C. Pomelli, J. W. Ochterski, 
 P. Y. Ayala, K. Morokuma, G. A. Voth, P. Salvador, J. J. Dannenberg, 
 V. G. Zakrzewski, S. Dapprich, A. D. Daniels, M. C. Strain, 
 O. Farkas, D. K. Malick, A. D. Rabuck, K. Raghavachari, 
 J. B. Foresman, J. V. Ortiz, Q. Cui, A. G. Baboul, S. Clifford, 
 J. Cioslowski, B. B. Stefanov, G. Liu, A. Liashenko, P. Piskorz, 
 I. Komaromi, R. L. Martin, D. J. Fox, T. Keith, M. A. Al-Laham, 
 C. Y. Peng, A. Nanayakkara, M. Challacombe, P. M. W. Gill, 
 B. Johnson, W. Chen, M. W. Wong, C. Gonzalez, and J. A. Pople, 
 Gaussian, Inc., Wallingford CT, 2004.
 
 ******************************************
 Gaussian 03:  AM64L-G03RevD.01 13-Oct-2005
                 2-May-2007 
 ******************************************
 %chk=depW3.chk
 %mem=64MW
 %nproc=1
 Will use up to    1 processors via shared memory.
 --------------------------
 # freq opt mp2/aug-cc-pvDZ
 --------------------------
 1/18=20,38=1/1,3;
 2/9=110,17=6,18=5,40=1/2;
 3/5=16,7=10,11=9,16=1,25=1,30=1/1,2,3;
 4//1;
 5/5=2,38=5/2;
 8/6=4,10=1/1;
 9/15=2,16=-3/6;
 10/5=1/2;
 6/7=2,8=2,9=2,10=2/1;
 7/12=2/1,2,3,16;
 1/18=20/3(3);
 2/9=110/2;
 6/7=2,8=2,9=2,10=2/1;
 99//99;
 2/9=110/2;
 3/5=16,7=10,11=9,16=1,25=1,30=1/1,2,3;
 4/5=5,16=3/1;
 5/5=2,38=5/2;
 8/6=4,10=1/1;
 9/15=2,16=-3/6;
 10/5=1/2;
 7/12=2/1,2,3,16;
 1/18=20/3(-8);
 2/9=110/2;
 6/7=2,8=2,9=2,10=2/1;
 99//99;
 -------------------
 Title Card Required
 -------------------
 Symbolic Z-matrix:
 Charge = -1 Multiplicity = 1
 O                    -0.40682   0.30159   0.16053 
 O                    -1.28969  -1.38391  -1.54619 
 O                     1.69651   1.08233   1.38566 
 H                     0.81049   0.76349   0.83457 
 H                    -1.1257    0.83469   0.44448 
 H                    -0.91027  -0.68932  -0.79505 
 H                    -1.12026  -2.27977  -1.31706 
 H                     2.39824   1.33301   0.81252 
 

 GradGradGradGradGradGradGradGradGradGradGradGradGradGradGradGradGradGrad
 Berny optimization.
 Initialization pass.
                           ----------------------------
                           !    Initial Parameters    !
                           ! (Angstroms and Degrees)  !
 --------------------------                            --------------------------
 ! Name  Definition              Value          Derivative Info.                !
 --------------------------------------------------------------------------------
 ! R1    R(1,4)                  1.4661         estimate D2E/DX2                !
 ! R2    R(1,5)                  0.9389         estimate D2E/DX2                !
 ! R3    R(1,6)                  1.4658         estimate D2E/DX2                !
 ! R4    R(2,6)                  1.0912         estimate D2E/DX2                !
 ! R5    R(2,7)                  0.9401         estimate D2E/DX2                !
 ! R6    R(3,4)                  1.091          estimate D2E/DX2                !
 ! R7    R(3,8)                  0.9401         estimate D2E/DX2                !
 ! A1    A(4,1,5)              108.5291         estimate D2E/DX2                !
 ! A2    A(4,1,6)              142.9285         estimate D2E/DX2                !
 ! A3    A(5,1,6)              108.5425         estimate D2E/DX2                !
 ! A4    A(6,2,7)              112.0964         estimate D2E/DX2                !
 ! A5    A(4,3,8)              112.0959         estimate D2E/DX2                !
 ! A6    L(1,4,3,8,-1)         182.9496         estimate D2E/DX2                !
 ! A7    L(1,6,2,7,-1)         182.9453         estimate D2E/DX2                !
 ! A8    L(1,4,3,8,-2)         181.8724         estimate D2E/DX2                !
 ! A9    L(1,6,2,7,-2)         181.8844         estimate D2E/DX2                !
 ! D1    D(4,1,2,7)             58.6329         estimate D2E/DX2                !
 ! D2    D(5,1,2,7)           -123.4744         estimate D2E/DX2                !
 ! D3    D(5,1,3,8)           -123.4115         estimate D2E/DX2                !
 ! D4    D(6,1,3,8)             58.7085         estimate D2E/DX2                !
 --------------------------------------------------------------------------------
 Trust Radius=3.00D-01 FncErr=1.00D-07 GrdErr=1.00D-07
 Number of steps in this run=  30 maximum allowed number of steps= 100.
 GradGradGradGradGradGradGradGradGradGradGradGradGradGradGradGradGradGrad

                          Input orientation:                          
 ---------------------------------------------------------------------
 Center     Atomic     Atomic              Coordinates (Angstroms)
 Number     Number      Type              X           Y           Z
 ---------------------------------------------------------------------
    1          8             0       -0.406819    0.301587    0.160526
    2          8             0       -1.289688   -1.383913   -1.546189
    3          8             0        1.696506    1.082326    1.385663
    4          1             0        0.810493    0.763491    0.834574
    5          1             0       -1.125704    0.834686    0.444478
    6          1             0       -0.910268   -0.689320   -0.795047
    7          1             0       -1.120257   -2.279775   -1.317063
    8          1             0        2.398238    1.333013    0.812517
 ---------------------------------------------------------------------
                    Distance matrix (angstroms):
                    1          2          3          4          5
     1  O    0.000000
     2  O    2.556021   0.000000
     3  O    2.556265   4.857514   0.000000
     4  H    1.466133   3.832771   1.091043   0.000000
     5  H    0.938946   2.985268   2.985301   1.976386   0.000000
     6  H    1.465769   1.091161   3.832688   2.779810   1.976216
     7  H    3.058708   0.940093   5.151952   4.197476   3.578117
     8  H    3.058967   5.152279   0.940089   1.686943   3.577981
                    6          7          8
     6  H    0.000000
     7  H    1.687052   0.000000
     8  H    4.197655   5.474226   0.000000
 Stoichiometry    H5O3(1-)
 Framework group  C1[X(H5O3)]
 Deg. of freedom    18
 Full point group                 C1
 Largest Abelian subgroup         C1      NOp   1
 Largest concise Abelian subgroup C1      NOp   1
                         Standard orientation:                         
 ---------------------------------------------------------------------
 Center     Atomic     Atomic              Coordinates (Angstroms)
 Number     Number      Type              X           Y           Z
 ---------------------------------------------------------------------
    1          8             0        0.000101    0.533591   -0.000009
    2          8             0        2.427265   -0.263250    0.084631
    3          8             0       -2.427298   -0.263313   -0.084674
    4          1             0       -1.389879    0.067500   -0.016132
    5          1             0       -0.000016    1.472536   -0.000107
    6          1             0        1.389744    0.067640    0.016110
    7          1             0        2.664541   -0.832363   -0.625007
    8          1             0       -2.664929   -0.831533    0.625555
 ---------------------------------------------------------------------
 Rotational constants (GHZ):     44.6161474      2.4332361      2.3279356
 Standard basis: Aug-CC-pVDZ (5D, 7F)
 There are   114 symmetry adapted basis functions of A   symmetry.
 Integral buffers will be    131072 words long.
 Raffenetti 1 integral format.
 Two-electron integral symmetry is turned on.
   114 basis functions,   184 primitive gaussians,   120 cartesian basis functions
    15 alpha electrons       15 beta electrons
       nuclear repulsion energy        71.9760679324 Hartrees.
 NAtoms=    8 NActive=    8 NUniq=    8 SFac= 7.50D-01 NAtFMM=   80 NAOKFM=F Big=F
 One-electron integrals computed using PRISM.
 NBasis=   114 RedAO= T  NBF=   114
 NBsUse=   114 1.00D-06 NBFU=   114
 Harris functional with IExCor=  205 diagonalized for initial guess.
 ExpMin= 2.97D-02 ExpMax= 1.17D+04 ExpMxC= 4.01D+02 IAcc=3 IRadAn=         5 AccDes= 0.00D+00
 HarFok:  IExCor= 205 AccDes= 0.00D+00 IRadAn=         5 IDoV=1
 ScaDFX=  1.000000  1.000000  1.000000  1.000000
 Initial guess orbital symmetries:
       Occupied  (A) (A) (A) (A) (A) (A) (A) (A) (A) (A) (A) (A)
                 (A) (A) (A)
       Virtual   (A) (A) (A) (A) (A) (A) (A) (A) (A) (A) (A) (A)
                 (A) (A) (A) (A) (A) (A) (A) (A) (A) (A) (A) (A)
                 (A) (A) (A) (A) (A) (A) (A) (A) (A) (A) (A) (A)
                 (A) (A) (A) (A) (A) (A) (A) (A) (A) (A) (A) (A)
                 (A) (A) (A) (A) (A) (A) (A) (A) (A) (A) (A) (A)
                 (A) (A) (A) (A) (A) (A) (A) (A) (A) (A) (A) (A)
                 (A) (A) (A) (A) (A) (A) (A) (A) (A) (A) (A) (A)
                 (A) (A) (A) (A) (A) (A) (A) (A) (A) (A) (A) (A)
                 (A) (A) (A)
 The electronic state of the initial guess is 1-A.
 Requested convergence on RMS density matrix=1.00D-08 within 128 cycles.
 Requested convergence on MAX density matrix=1.00D-06.
 Requested convergence on             energy=1.00D-06.
 No special actions if energy rises.
 Keep R1 integrals in memory in canonical form, NReq=    28132114.
 SCF Done:  E(RHF) =  -227.536220728     A.U. after   11 cycles
             Convg  =    0.6841D-08             -V/T =  2.0014
             S**2   =   0.0000
 ExpMin= 2.97D-02 ExpMax= 1.17D+04 ExpMxC= 4.01D+02 IAcc=3 IRadAn=         5 AccDes= 0.00D+00
 HarFok:  IExCor= 205 AccDes= 0.00D+00 IRadAn=         5 IDoV=1
 ScaDFX=  1.000000  1.000000  1.000000  1.000000
 Range of M.O.s used for correlation:     4   114
 NBasis=   114 NAE=    15 NBE=    15 NFC=     3 NFV=     0
 NROrb=    111 NOA=    12 NOB=    12 NVA=    99 NVB=    99
 Fully direct method using O(ONN) memory.
 JobTyp=1 Pass  1:  I=   4 to  15 NPSUse=  1 ParTrn=F ParDer=F DoDerP=T.
 Spin components of T(2) and E(2):
     alpha-alpha T2 =       0.2713405007D-01 E2=     -0.9189667695D-01
     alpha-beta  T2 =       0.1431420836D+00 E2=     -0.5090066939D+00
     beta-beta   T2 =       0.2713405007D-01 E2=     -0.9189667695D-01
 ANorm=    0.1094262393D+01
 E2 =    -0.6928000478D+00 EUMP2 =    -0.22822902077564D+03
 DoAtom=TTTTTTTT
          Differentiating once with respect to electric field.
                with respect to dipole field.
          Differentiating once with respect to nuclear coordinates.
          Store integrals in memory, NReq=    27178384.
          There are   1 degrees of freedom in the 1st order CPHF.
     1 vectors were produced by pass  0.
 AX will form   1 AO Fock derivatives at one time.
     1 vectors were produced by pass  1.
     1 vectors were produced by pass  2.
     1 vectors were produced by pass  3.
     1 vectors were produced by pass  4.
     1 vectors were produced by pass  5.
     1 vectors were produced by pass  6.
     1 vectors were produced by pass  7.
     1 vectors were produced by pass  8.
     1 vectors were produced by pass  9.
     1 vectors were produced by pass 10.
     1 vectors were produced by pass 11.
     1 vectors were produced by pass 12.
 Inv2:  IOpt= 1 Iter= 1 AM= 2.66D-16 Conv= 1.00D-12.
 Inverted reduced A of dimension   13 with in-core refinement.
 End of Minotr Frequency-dependent properties file   721 does not exist.

 **********************************************************************

            Population analysis using the SCF density.

 **********************************************************************

 Orbital symmetries:
       Occupied  (A) (A) (A) (A) (A) (A) (A) (A) (A) (A) (A) (A)
                 (A) (A) (A)
       Virtual   (A) (A) (A) (A) (A) (A) (A) (A) (A) (A) (A) (A)
                 (A) (A) (A) (A) (A) (A) (A) (A) (A) (A) (A) (A)
                 (A) (A) (A) (A) (A) (A) (A) (A) (A) (A) (A) (A)
                 (A) (A) (A) (A) (A) (A) (A) (A) (A) (A) (A) (A)
                 (A) (A) (A) (A) (A) (A) (A) (A) (A) (A) (A) (A)
                 (A) (A) (A) (A) (A) (A) (A) (A) (A) (A) (A) (A)
                 (A) (A) (A) (A) (A) (A) (A) (A) (A) (A) (A) (A)
                 (A) (A) (A) (A) (A) (A) (A) (A) (A) (A) (A) (A)
                 (A) (A) (A)
 The electronic state is 1-A.
 Alpha  occ. eigenvalues --  -20.33951 -20.33944 -20.29264  -1.10958  -1.10423
 Alpha  occ. eigenvalues --   -1.04067  -0.50278  -0.48480  -0.39216  -0.36164
 Alpha  occ. eigenvalues --   -0.31836  -0.27728  -0.27472  -0.22984  -0.21863
 Alpha virt. eigenvalues --    0.15287   0.15979   0.17803   0.21082   0.22250
 Alpha virt. eigenvalues --    0.33139   0.33177   0.35404   0.35746   0.36937
 Alpha virt. eigenvalues --    0.36947   0.38350   0.40946   0.44706   0.45188
 Alpha virt. eigenvalues --    0.47459   0.48342   0.51477   0.52921   0.54052
 Alpha virt. eigenvalues --    0.57371   0.59324   0.59621   0.59924   0.67481
 Alpha virt. eigenvalues --    0.67698   0.69527   0.75972   0.76917   0.79099
 Alpha virt. eigenvalues --    0.79819   0.83947   0.84291   0.85671   0.88752
 Alpha virt. eigenvalues --    1.00380   1.01310   1.10145   1.12188   1.16211
 Alpha virt. eigenvalues --    1.17241   1.18907   1.30524   1.30611   1.32744
 Alpha virt. eigenvalues --    1.33889   1.39948   1.39990   1.41306   1.49309
 Alpha virt. eigenvalues --    1.56139   1.57803   1.61460   1.63255   1.68202
 Alpha virt. eigenvalues --    1.70421   1.72921   1.79446   1.82765   1.88855
 Alpha virt. eigenvalues --    1.89925   1.93287   2.16477   2.24129   2.25233
 Alpha virt. eigenvalues --    2.27459   2.28118   2.32836   2.38524   2.40589
 Alpha virt. eigenvalues --    2.51296   2.64995   2.76955   2.79862   2.81686
 Alpha virt. eigenvalues --    2.93150   2.94905   2.99454   3.02020   3.12599
 Alpha virt. eigenvalues --    3.18253   3.20312   3.26109   3.49099   3.89963
 Alpha virt. eigenvalues --    3.90027   3.91277   3.92164   3.96805   3.97819
 Alpha virt. eigenvalues --    3.98606   4.04054   4.08383   4.09978   4.43396
 Alpha virt. eigenvalues --    4.44229   4.52902   4.62659   4.74129
          Condensed to atoms (all electrons):
              1          2          3          4          5          6
     1  O    8.830895  -0.102197  -0.102141   0.011156   0.397731   0.011163
     2  O   -0.102197   8.120993  -0.002531  -0.001444  -0.000666   0.208891
     3  O   -0.102141  -0.002531   8.120649   0.208973  -0.000670  -0.001448
     4  H    0.011156  -0.001444   0.208973   0.261667  -0.014679   0.001140
     5  H    0.397731  -0.000666  -0.000670  -0.014679   0.658900  -0.014700
     6  H    0.011163   0.208891  -0.001448   0.001140  -0.014700   0.261519
     7  H   -0.000242   0.355830   0.000371  -0.000837  -0.002418  -0.036327
     8  H   -0.000254   0.000370   0.355829  -0.036352  -0.002421  -0.000835
              7          8
     1  O   -0.000242  -0.000254
     2  O    0.355830   0.000370
     3  O    0.000371   0.355829
     4  H   -0.000837  -0.036352
     5  H   -0.002418  -0.002421
     6  H   -0.036327  -0.000835
     7  H    0.641103   0.000307
     8  H    0.000307   0.641078
 Mulliken atomic charges:
              1
     1  O   -1.046112
     2  O   -0.579245
     3  O   -0.579032
     4  H    0.570375
     5  H   -0.021077
     6  H    0.570597
     7  H    0.042214
     8  H    0.042279
 Sum of Mulliken charges=  -1.00000
 Atomic charges with hydrogens summed into heavy atoms:
              1
     1  O   -1.067189
     2  O    0.033566
     3  O    0.033622
     4  H    0.000000
     5  H    0.000000
     6  H    0.000000
     7  H    0.000000
     8  H    0.000000
 Sum of Mulliken charges=  -1.00000
 Electronic spatial extent (au):  <R**2>=   494.4076
 Charge=    -1.0000 electrons
 Dipole moment (field-independent basis, Debye):
    X=    -0.0027    Y=    -0.5060    Z=     0.0009  Tot=     0.5060
 Quadrupole moment (field-independent basis, Debye-Ang):
   XX=   -45.7687   YY=   -19.4983   ZZ=   -22.4904
   XY=    -0.0029   XZ=    -7.2863   YZ=     0.0000
 Traceless Quadrupole moment (field-independent basis, Debye-Ang):
   XX=   -16.5162   YY=     9.7542   ZZ=     6.7621
   XY=    -0.0029   XZ=    -7.2863   YZ=     0.0000
 Octapole moment (field-independent basis, Debye-Ang**2):
  XXX=    -0.0302  YYY=     2.6920  ZZZ=     0.0015  XYY=     0.0066
  XXY=    -7.5064  XXZ=     0.0119  XZZ=    -0.0069  YZZ=    -1.6452
  YYZ=    -0.0013  XYZ=     7.1858
 Hexadecapole moment (field-independent basis, Debye-Ang**3):
 XXXX=  -705.4013 YYYY=   -42.4281 ZZZZ=   -26.7048 XXXY=    -0.0127
 XXXZ=   -58.0905 YYYX=    -0.0104 YYYZ=     0.0010 ZZZX=    -6.0485
 ZZZY=    -0.0005 XXYY=   -90.1851 XXZZ=   -89.7732 YYZZ=   -12.4569
 XXYZ=    -0.0004 YYXZ=    -6.6161 ZZXY=     0.0021
 N-N= 7.197606793240D+01 E-N=-6.916671859218D+02  KE= 2.272151547848D+02
 ***** Axes restored to original set *****
 -------------------------------------------------------------------
 Center     Atomic                   Forces (Hartrees/Bohr)
 Number     Number              X              Y              Z
 -------------------------------------------------------------------
    1          8           0.023665083   -0.017533160   -0.009335269
    2          8          -0.004160906    0.038933766   -0.003381317
    3          8          -0.032997841   -0.011418882    0.018053252
    4          1           0.018072022    0.004889215    0.003386463
    5          1          -0.023425105    0.017366333    0.009249705
    6          1          -0.002694292   -0.016286112   -0.009461172
    7          1           0.008181070   -0.021006105    0.013618387
    8          1           0.013359969    0.005054944   -0.022130049
 -------------------------------------------------------------------
 Cartesian Forces:  Max     0.038933766 RMS     0.017189675

 GradGradGradGradGradGradGradGradGradGradGradGradGradGradGradGradGradGrad
 Berny optimization.
 Internal  Forces:  Max     0.030592191 RMS     0.013152294
 Search for a local minimum.
 Step number   1 out of a maximum of  30
 All quantities printed in internal units (Hartrees-Bohrs-Radians)
 Second derivative matrix not updated -- first step.
 The second derivative matrix:
                          R1        R2        R3        R4        R5
           R1           0.12256
           R2           0.00000   0.60260
           R3           0.00000   0.00000   0.12267
           R4           0.00000   0.00000   0.00000   0.34679
           R5           0.00000   0.00000   0.00000   0.00000   0.59985
           R6           0.00000   0.00000   0.00000   0.00000   0.00000
           R7           0.00000   0.00000   0.00000   0.00000   0.00000
           A1           0.00000   0.00000   0.00000   0.00000   0.00000
           A2           0.00000   0.00000   0.00000   0.00000   0.00000
           A3           0.00000   0.00000   0.00000   0.00000   0.00000
           A4           0.00000   0.00000   0.00000   0.00000   0.00000
           A5           0.00000   0.00000   0.00000   0.00000   0.00000
           A6           0.00000   0.00000   0.00000   0.00000   0.00000
           A7           0.00000   0.00000   0.00000   0.00000   0.00000
           A8           0.00000   0.00000   0.00000   0.00000   0.00000
           A9           0.00000   0.00000   0.00000   0.00000   0.00000
           D1           0.00000   0.00000   0.00000   0.00000   0.00000
           D2           0.00000   0.00000   0.00000   0.00000   0.00000
           D3           0.00000   0.00000   0.00000   0.00000   0.00000
           D4           0.00000   0.00000   0.00000   0.00000   0.00000
                          R6        R7        A1        A2        A3
           R6           0.34692
           R7           0.00000   0.59986
           A1           0.00000   0.00000   0.16000
           A2           0.00000   0.00000   0.00000   0.16000
           A3           0.00000   0.00000   0.00000   0.00000   0.16000
           A4           0.00000   0.00000   0.00000   0.00000   0.00000
           A5           0.00000   0.00000   0.00000   0.00000   0.00000
           A6           0.00000   0.00000   0.00000   0.00000   0.00000
           A7           0.00000   0.00000   0.00000   0.00000   0.00000
           A8           0.00000   0.00000   0.00000   0.00000   0.00000
           A9           0.00000   0.00000   0.00000   0.00000   0.00000
           D1           0.00000   0.00000   0.00000   0.00000   0.00000
           D2           0.00000   0.00000   0.00000   0.00000   0.00000
           D3           0.00000   0.00000   0.00000   0.00000   0.00000
           D4           0.00000   0.00000   0.00000   0.00000   0.00000
                          A4        A5        A6        A7        A8
           A4           0.16000
           A5           0.00000   0.16000
           A6           0.00000   0.00000   0.25000
           A7           0.00000   0.00000   0.00000   0.25000
           A8           0.00000   0.00000   0.00000   0.00000   0.25000
           A9           0.00000   0.00000   0.00000   0.00000   0.00000
           D1           0.00000   0.00000   0.00000   0.00000   0.00000
           D2           0.00000   0.00000   0.00000   0.00000   0.00000
           D3           0.00000   0.00000   0.00000   0.00000   0.00000
           D4           0.00000   0.00000   0.00000   0.00000   0.00000
                          A9        D1        D2        D3        D4
           A9           0.25000
           D1           0.00000   0.00230
           D2           0.00000   0.00000   0.00230
           D3           0.00000   0.00000   0.00000   0.00230
           D4           0.00000   0.00000   0.00000   0.00000   0.00230
     Eigenvalues ---    0.00230   0.00230   0.00230   0.12256   0.12267
     Eigenvalues ---    0.15961   0.16000   0.16000   0.16000   0.21009
     Eigenvalues ---    0.25000   0.25000   0.25000   0.34678   0.34692
     Eigenvalues ---    0.59985   0.59986   0.602601000.000001000.00000
 RFO step:  Lambda=-8.78339360D-03.
 Linear search not attempted -- first point.
 Iteration  1 RMS(Cart)=  0.07338694 RMS(Int)=  0.00244092
 Iteration  2 RMS(Cart)=  0.00269018 RMS(Int)=  0.00001068
 Iteration  3 RMS(Cart)=  0.00000547 RMS(Int)=  0.00000938
 Iteration  4 RMS(Cart)=  0.00000000 RMS(Int)=  0.00000938
 Variable       Old X    -DE/DX   Delta X   Delta X   Delta X     New X
                                 (Linear)    (Quad)   (Total)
    R1        2.77059  -0.00208   0.00000  -0.01584  -0.01584   2.75475
    R2        1.77435   0.03059   0.00000   0.05004   0.05004   1.82439
    R3        2.76990  -0.00207   0.00000  -0.01575  -0.01575   2.75415
    R4        2.06200  -0.01985   0.00000  -0.05583  -0.05583   2.00617
    R5        1.77652   0.02480   0.00000   0.04075   0.04075   1.81727
    R6        2.06177  -0.01986   0.00000  -0.05583  -0.05583   2.00594
    R7        1.77651   0.02481   0.00000   0.04075   0.04075   1.81727
    A1        1.89419   0.00032   0.00000   0.00199   0.00199   1.89618
    A2        2.49457  -0.00064   0.00000  -0.00393  -0.00393   2.49064
    A3        1.89442   0.00031   0.00000   0.00194   0.00194   1.89637
    A4        1.95645  -0.01566   0.00000  -0.09279  -0.09279   1.86366
    A5        1.95644  -0.01567   0.00000  -0.09284  -0.09284   1.86360
    A6        3.19307  -0.00122   0.00000  -0.00570  -0.00569   3.18738
    A7        3.19300  -0.00122   0.00000  -0.00568  -0.00567   3.18733
    A8        3.17427  -0.00064   0.00000  -0.00276  -0.00276   3.17151
    A9        3.17448  -0.00064   0.00000  -0.00277  -0.00276   3.17172
    D1        1.02334  -0.00024   0.00000   0.01673   0.01671   1.04005
    D2       -2.15503   0.00066   0.00000   0.02051   0.02053  -2.13451
    D3       -2.15394   0.00066   0.00000   0.02038   0.02039  -2.13354
    D4        1.02466  -0.00024   0.00000   0.01670   0.01668   1.04134
         Item               Value     Threshold  Converged?
 Maximum Force            0.030592     0.000450     NO 
 RMS     Force            0.013152     0.000300     NO 
 Maximum Displacement     0.148598     0.001800     NO 
 RMS     Displacement     0.074604     0.001200     NO 
 Predicted change in Energy=-4.529136D-03
 GradGradGradGradGradGradGradGradGradGradGradGradGradGradGradGradGradGrad

                          Input orientation:                          
 ---------------------------------------------------------------------
 Center     Atomic     Atomic              Coordinates (Angstroms)
 Number     Number      Type              X           Y           Z
 ---------------------------------------------------------------------
    1          8             0       -0.401254    0.297499    0.158342
    2          8             0       -1.255180   -1.343486   -1.550445
    3          8             0        1.669287    1.036492    1.387034
    4          1             0        0.806332    0.739507    0.844925
    5          1             0       -1.140427    0.845605    0.450313
    6          1             0       -0.894928   -0.673627   -0.809810
    7          1             0       -1.061977   -2.232363   -1.238428
    8          1             0        2.330648    1.292468    0.737529
 ---------------------------------------------------------------------
                    Distance matrix (angstroms):
                    1          2          3          4          5
     1  O    0.000000
     2  O    2.518328   0.000000
     3  O    2.518518   4.779706   0.000000
     4  H    1.457748   3.785035   1.061496   0.000000
     5  H    0.965424   2.967881   2.967891   1.989182   0.000000
     6  H    1.457436   1.061618   3.784948   2.762134   1.989031
     7  H    2.964410   0.961658   5.003826   4.082028   3.511679
     8  H    2.964576   5.004123   0.961655   1.625067   3.511488
                    6          7          8
     6  H    0.000000
     7  H    1.625201   0.000000
     8  H    4.082173   5.276244   0.000000
 Stoichiometry    H5O3(1-)
 Framework group  C1[X(H5O3)]
 Deg. of freedom    18
 Full point group                 C1
 Largest Abelian subgroup         C1      NOp   1
 Largest concise Abelian subgroup C1      NOp   1
                         Standard orientation:                         
 ---------------------------------------------------------------------
 Center     Atomic     Atomic              Coordinates (Angstroms)
 Number     Number      Type              X           Y           Z
 ---------------------------------------------------------------------
    1          8             0        0.000079    0.530395   -0.000007
    2          8             0        2.388192   -0.263960    0.088807
    3          8             0       -2.388211   -0.264032   -0.088848
    4          1             0       -1.380950    0.064246   -0.022269
    5          1             0       -0.000025    1.495819   -0.000149
    6          1             0        1.380826    0.064388    0.022235
    7          1             0        2.549425   -0.822265   -0.677407
    8          1             0       -2.549761   -0.821408    0.677973
 ---------------------------------------------------------------------
 Rotational constants (GHZ):     44.0383739      2.5195950      2.4087307
 Standard basis: Aug-CC-pVDZ (5D, 7F)
 There are   114 symmetry adapted basis functions of A   symmetry.
 Integral buffers will be    131072 words long.
 Raffenetti 1 integral format.
 Two-electron integral symmetry is turned on.
   114 basis functions,   184 primitive gaussians,   120 cartesian basis functions
    15 alpha electrons       15 beta electrons
       nuclear repulsion energy        72.6291588250 Hartrees.
 NAtoms=    8 NActive=    8 NUniq=    8 SFac= 7.50D-01 NAtFMM=   80 NAOKFM=F Big=F
 One-electron integrals computed using PRISM.
 NBasis=   114 RedAO= T  NBF=   114
 NBsUse=   114 1.00D-06 NBFU=   114
 Initial guess read from the read-write file:
 Initial guess orbital symmetries:
       Occupied  (A) (A) (A) (A) (A) (A) (A) (A) (A) (A) (A) (A)
                 (A) (A) (A)
       Virtual   (A) (A) (A) (A) (A) (A) (A) (A) (A) (A) (A) (A)
                 (A) (A) (A) (A) (A) (A) (A) (A) (A) (A) (A) (A)
                 (A) (A) (A) (A) (A) (A) (A) (A) (A) (A) (A) (A)
                 (A) (A) (A) (A) (A) (A) (A) (A) (A) (A) (A) (A)
                 (A) (A) (A) (A) (A) (A) (A) (A) (A) (A) (A) (A)
                 (A) (A) (A) (A) (A) (A) (A) (A) (A) (A) (A) (A)
                 (A) (A) (A) (A) (A) (A) (A) (A) (A) (A) (A) (A)
                 (A) (A) (A) (A) (A) (A) (A) (A) (A) (A) (A) (A)
                 (A) (A) (A)
 Harris functional with IExCor=  205 diagonalized for initial guess.
 ExpMin= 2.97D-02 ExpMax= 1.17D+04 ExpMxC= 4.01D+02 IAcc=3 IRadAn=         5 AccDes= 0.00D+00
 HarFok:  IExCor= 205 AccDes= 0.00D+00 IRadAn=         5 IDoV=1
 ScaDFX=  1.000000  1.000000  1.000000  1.000000
 Requested convergence on RMS density matrix=1.00D-08 within 128 cycles.
 Requested convergence on MAX density matrix=1.00D-06.
 Requested convergence on             energy=1.00D-06.
 No special actions if energy rises.
 Keep R1 integrals in memory in canonical form, NReq=    28132114.
 SCF Done:  E(RHF) =  -227.540203528     A.U. after   11 cycles
             Convg  =    0.4710D-08             -V/T =  2.0015
             S**2   =   0.0000
 ExpMin= 2.97D-02 ExpMax= 1.17D+04 ExpMxC= 4.01D+02 IAcc=3 IRadAn=         5 AccDes= 0.00D+00
 HarFok:  IExCor= 205 AccDes= 0.00D+00 IRadAn=         5 IDoV=1
 ScaDFX=  1.000000  1.000000  1.000000  1.000000
 Range of M.O.s used for correlation:     4   114
 NBasis=   114 NAE=    15 NBE=    15 NFC=     3 NFV=     0
 NROrb=    111 NOA=    12 NOB=    12 NVA=    99 NVB=    99
 Fully direct method using O(ONN) memory.
 JobTyp=1 Pass  1:  I=   4 to  15 NPSUse=  1 ParTrn=F ParDer=F DoDerP=T.
 Spin components of T(2) and E(2):
     alpha-alpha T2 =       0.2723068041D-01 E2=     -0.9202967323D-01
     alpha-beta  T2 =       0.1438471786D+00 E2=     -0.5100894633D+00
     beta-beta   T2 =       0.2723068041D-01 E2=     -0.9202967323D-01
 ANorm=    0.1094672800D+01
 E2 =    -0.6941488098D+00 EUMP2 =    -0.22823435233736D+03
 DoAtom=TTTTTTTT
          Differentiating once with respect to electric field.
                with respect to dipole field.
          Differentiating once with respect to nuclear coordinates.
          Store integrals in memory, NReq=    27178384.
          There are   1 degrees of freedom in the 1st order CPHF.
     1 vectors were produced by pass  0.
 AX will form   1 AO Fock derivatives at one time.
     1 vectors were produced by pass  1.
     1 vectors were produced by pass  2.
     1 vectors were produced by pass  3.
     1 vectors were produced by pass  4.
     1 vectors were produced by pass  5.
     1 vectors were produced by pass  6.
     1 vectors were produced by pass  7.
     1 vectors were produced by pass  8.
     1 vectors were produced by pass  9.
     1 vectors were produced by pass 10.
     1 vectors were produced by pass 11.
     1 vectors were produced by pass 12.
 Inv2:  IOpt= 1 Iter= 1 AM= 4.47D-16 Conv= 1.00D-12.
 Inverted reduced A of dimension   13 with in-core refinement.
 End of Minotr Frequency-dependent properties file   721 does not exist.
 ***** Axes restored to original set *****
 -------------------------------------------------------------------
 Center     Atomic                   Forces (Hartrees/Bohr)
 Number     Number              X              Y              Z
 -------------------------------------------------------------------
    1          8          -0.001272418    0.000958114    0.000513154
    2          8          -0.001715040    0.004285898   -0.002586565
    3          8          -0.002814507   -0.000923172    0.004382466
    4          1           0.007240198    0.001384396    0.002547551
    5          1          -0.000895123    0.000659943    0.000351426
    6          1          -0.001138050   -0.005927259   -0.004973325
    7          1           0.001791072   -0.000437871    0.004074724
    8          1          -0.001196131   -0.000000049   -0.004309431
 -------------------------------------------------------------------
 Cartesian Forces:  Max     0.007240198 RMS     0.003042302

 GradGradGradGradGradGradGradGradGradGradGradGradGradGradGradGradGradGrad
 Berny optimization.
 Internal  Forces:  Max     0.007152960 RMS     0.003042828
 Search for a local minimum.
 Step number   2 out of a maximum of  30
 All quantities printed in internal units (Hartrees-Bohrs-Radians)
 Update second derivatives using D2CorX and points  1  2
 Trust test= 1.18D+00 RLast= 1.77D-01 DXMaxT set to 4.24D-01
 The second derivative matrix:
                          R1        R2        R3        R4        R5
           R1           0.12756
           R2          -0.01923   0.62108
           R3           0.00500  -0.01926   0.12767
           R4           0.01010  -0.00110   0.01012   0.34150
           R5          -0.01458   0.01015  -0.01461   0.00180   0.60436
           R6           0.01012  -0.00115   0.01014  -0.00526   0.00176
           R7          -0.01458   0.01015  -0.01461   0.00180   0.00450
           A1           0.00004  -0.00095   0.00004   0.00062  -0.00078
           A2          -0.00007   0.00188  -0.00007  -0.00124   0.00154
           A3           0.00004  -0.00093   0.00003   0.00061  -0.00076
           A4           0.00416   0.01636   0.00418  -0.01362   0.01466
           A5           0.00417   0.01635   0.00419  -0.01362   0.01465
           A6          -0.00143   0.01034  -0.00143  -0.00618   0.00818
           A7          -0.00143   0.01032  -0.00143  -0.00617   0.00816
           A8          -0.00001   0.00175  -0.00001  -0.00118   0.00145
           A9          -0.00001   0.00176  -0.00001  -0.00119   0.00145
           D1          -0.00025   0.00113  -0.00026  -0.00062   0.00087
           D2           0.00036  -0.00186   0.00036   0.00105  -0.00144
           D3           0.00036  -0.00186   0.00036   0.00105  -0.00144
           D4          -0.00026   0.00113  -0.00026  -0.00062   0.00087
                          R6        R7        A1        A2        A3
           R6           0.34169
           R7           0.00176   0.60436
           A1           0.00062  -0.00078   0.15999
           A2          -0.00124   0.00154   0.00002   0.15995
           A3           0.00061  -0.00076  -0.00001   0.00002   0.15999
           A4          -0.01361   0.01466   0.00050  -0.00100   0.00049
           A5          -0.01361   0.01466   0.00050  -0.00100   0.00049
           A6          -0.00619   0.00818   0.00006  -0.00012   0.00006
           A7          -0.00618   0.00816   0.00006  -0.00012   0.00006
           A8          -0.00118   0.00145   0.00002  -0.00005   0.00002
           A9          -0.00119   0.00145   0.00002  -0.00005   0.00002
           D1          -0.00062   0.00087   0.00000   0.00000   0.00000
           D2           0.00105  -0.00144   0.00000   0.00001   0.00000
           D3           0.00105  -0.00144   0.00000   0.00001   0.00000
           D4          -0.00062   0.00087   0.00000   0.00000   0.00000
                          A4        A5        A6        A7        A8
           A4           0.14458
           A5          -0.01542   0.14458
           A6          -0.00401  -0.00402   0.24999
           A7          -0.00401  -0.00401  -0.00001   0.24999
           A8          -0.00100  -0.00100  -0.00014  -0.00014   0.24995
           A9          -0.00101  -0.00101  -0.00014  -0.00014  -0.00005
           D1          -0.00030  -0.00030   0.00006   0.00006   0.00000
           D2           0.00057   0.00057  -0.00006  -0.00006   0.00001
           D3           0.00057   0.00057  -0.00006  -0.00006   0.00001
           D4          -0.00030  -0.00030   0.00006   0.00006   0.00000
                          A9        D1        D2        D3        D4
           A9           0.24995
           D1           0.00000   0.00231
           D2           0.00001  -0.00002   0.00232
           D3           0.00001  -0.00002   0.00002   0.00232
           D4           0.00000   0.00001  -0.00002  -0.00002   0.00231
     Eigenvalues ---    0.00230   0.00230   0.00230   0.11067   0.12262
     Eigenvalues ---    0.13854   0.15976   0.16000   0.16000   0.20931
     Eigenvalues ---    0.25000   0.25000   0.25003   0.34245   0.34686
     Eigenvalues ---    0.59984   0.59986   0.637121000.000001000.00000
 RFO step:  Lambda=-1.12864481D-03.
 Quartic linear search produced a step of  0.27074.
 Iteration  1 RMS(Cart)=  0.05120925 RMS(Int)=  0.00390605
 Iteration  2 RMS(Cart)=  0.00395578 RMS(Int)=  0.00007279
 Iteration  3 RMS(Cart)=  0.00001615 RMS(Int)=  0.00007170
 Iteration  4 RMS(Cart)=  0.00000000 RMS(Int)=  0.00007170
 Variable       Old X    -DE/DX   Delta X   Delta X   Delta X     New X
                                 (Linear)    (Quad)   (Total)
    R1        2.75475   0.00405  -0.00429   0.04424   0.03995   2.79469
    R2        1.82439   0.00117   0.01355  -0.00528   0.00826   1.83265
    R3        2.75415   0.00406  -0.00426   0.04430   0.04003   2.79419
    R4        2.00617  -0.00348  -0.01512  -0.00393  -0.01905   1.98712
    R5        1.81727   0.00208   0.01103  -0.00191   0.00913   1.82640
    R6        2.00594  -0.00347  -0.01512  -0.00389  -0.01900   1.98693
    R7        1.81727   0.00208   0.01103  -0.00190   0.00913   1.82640
    A1        1.89618   0.00028   0.00054   0.00206   0.00259   1.89877
    A2        2.49064  -0.00055  -0.00106  -0.00407  -0.00513   2.48551
    A3        1.89637   0.00027   0.00053   0.00202   0.00254   1.89891
    A4        1.86366  -0.00715  -0.02512  -0.04097  -0.06609   1.79757
    A5        1.86360  -0.00715  -0.02514  -0.04095  -0.06608   1.79752
    A6        3.18738  -0.00246  -0.00154  -0.01387  -0.01532   3.17207
    A7        3.18733  -0.00246  -0.00154  -0.01385  -0.01529   3.17203
    A8        3.17151  -0.00047  -0.00075  -0.00272  -0.00344   3.16808
    A9        3.17172  -0.00048  -0.00075  -0.00273  -0.00345   3.16827
    D1        1.04005  -0.00054   0.00452   0.07469   0.07907   1.11912
    D2       -2.13451   0.00105   0.00556   0.08340   0.08911  -2.04540
    D3       -2.13354   0.00105   0.00552   0.08296   0.08863  -2.04492
    D4        1.04134  -0.00054   0.00452   0.07461   0.07898   1.12032
         Item               Value     Threshold  Converged?
 Maximum Force            0.007153     0.000450     NO 
 RMS     Force            0.003043     0.000300     NO 
 Maximum Displacement     0.111219     0.001800     NO 
 RMS     Displacement     0.052029     0.001200     NO 
 Predicted change in Energy=-8.397685D-04
 GradGradGradGradGradGradGradGradGradGradGradGradGradGradGradGradGradGrad

                          Input orientation:                          
 ---------------------------------------------------------------------
 Center     Atomic     Atomic              Coordinates (Angstroms)
 Number     Number      Type              X           Y           Z
 ---------------------------------------------------------------------
    1          8             0       -0.395873    0.293567    0.156193
    2          8             0       -1.231440   -1.342223   -1.583319
    3          8             0        1.687506    1.004170    1.403312
    4          1             0        0.826306    0.722608    0.869850
    5          1             0       -1.138439    0.844049    0.449575
    6          1             0       -0.888317   -0.676409   -0.845288
    7          1             0       -1.085539   -2.208133   -1.179574
    8          1             0        2.278297    1.324466    0.708709
 ---------------------------------------------------------------------
                    Distance matrix (angstroms):
                    1          2          3          4          5
     1  O    0.000000
     2  O    2.529799   0.000000
     3  O    2.529967   4.790175   0.000000
     4  H    1.478887   3.809972   1.051439   0.000000
     5  H    0.969798   2.986820   2.986841   2.012860   0.000000
     6  H    1.478620   1.051538   3.809910   2.799800   2.012715
     7  H    2.918632   0.966488   4.967894   4.055186   3.460165
     8  H    2.918769   4.968187   0.966487   1.580024   3.460063
                    6          7          8
     6  H    0.000000
     7  H    1.580134   0.000000
     8  H    4.055348   5.230704   0.000000
 Stoichiometry    H5O3(1-)
 Framework group  C1[X(H5O3)]
 Deg. of freedom    18
 Full point group                 C1
 Largest Abelian subgroup         C1      NOp   1
 Largest concise Abelian subgroup C1      NOp   1
                         Standard orientation:                         
 ---------------------------------------------------------------------
 Center     Atomic     Atomic              Coordinates (Angstroms)
 Number     Number      Type              X           Y           Z
 ---------------------------------------------------------------------
    1          8             0        0.000069    0.538306    0.000011
    2          8             0        2.393234   -0.276438    0.094006
    3          8             0       -2.393249   -0.276508   -0.094034
    4          1             0       -1.399536    0.061800   -0.033974
    5          1             0       -0.000009    1.508103   -0.000288
    6          1             0        1.399440    0.061938    0.033949
    7          1             0        2.509427   -0.757773   -0.736003
    8          1             0       -2.509751   -0.756947    0.736449
 ---------------------------------------------------------------------
 Rotational constants (GHZ):     42.6502735      2.5112605      2.4012201
 Standard basis: Aug-CC-pVDZ (5D, 7F)
 There are   114 symmetry adapted basis functions of A   symmetry.
 Integral buffers will be    131072 words long.
 Raffenetti 1 integral format.
 Two-electron integral symmetry is turned on.
   114 basis functions,   184 primitive gaussians,   120 cartesian basis functions
    15 alpha electrons       15 beta electrons
       nuclear repulsion energy        72.4624132748 Hartrees.
 NAtoms=    8 NActive=    8 NUniq=    8 SFac= 7.50D-01 NAtFMM=   80 NAOKFM=F Big=F
 One-electron integrals computed using PRISM.
 NBasis=   114 RedAO= T  NBF=   114
 NBsUse=   114 1.00D-06 NBFU=   114
 Initial guess read from the read-write file:
 Initial guess orbital symmetries:
       Occupied  (A) (A) (A) (A) (A) (A) (A) (A) (A) (A) (A) (A)
                 (A) (A) (A)
       Virtual   (A) (A) (A) (A) (A) (A) (A) (A) (A) (A) (A) (A)
                 (A) (A) (A) (A) (A) (A) (A) (A) (A) (A) (A) (A)
                 (A) (A) (A) (A) (A) (A) (A) (A) (A) (A) (A) (A)
                 (A) (A) (A) (A) (A) (A) (A) (A) (A) (A) (A) (A)
                 (A) (A) (A) (A) (A) (A) (A) (A) (A) (A) (A) (A)
                 (A) (A) (A) (A) (A) (A) (A) (A) (A) (A) (A) (A)
                 (A) (A) (A) (A) (A) (A) (A) (A) (A) (A) (A) (A)
                 (A) (A) (A) (A) (A) (A) (A) (A) (A) (A) (A) (A)
                 (A) (A) (A)
 Harris functional with IExCor=  205 diagonalized for initial guess.
 ExpMin= 2.97D-02 ExpMax= 1.17D+04 ExpMxC= 4.01D+02 IAcc=3 IRadAn=         5 AccDes= 0.00D+00
 HarFok:  IExCor= 205 AccDes= 0.00D+00 IRadAn=         5 IDoV=1
 ScaDFX=  1.000000  1.000000  1.000000  1.000000
 Requested convergence on RMS density matrix=1.00D-08 within 128 cycles.
 Requested convergence on MAX density matrix=1.00D-06.
 Requested convergence on             energy=1.00D-06.
 No special actions if energy rises.
 Keep R1 integrals in memory in canonical form, NReq=    28132114.
 SCF Done:  E(RHF) =  -227.541187890     A.U. after   11 cycles
             Convg  =    0.4234D-08             -V/T =  2.0016
             S**2   =   0.0000
 ExpMin= 2.97D-02 ExpMax= 1.17D+04 ExpMxC= 4.01D+02 IAcc=3 IRadAn=         5 AccDes= 0.00D+00
 HarFok:  IExCor= 205 AccDes= 0.00D+00 IRadAn=         5 IDoV=1
 ScaDFX=  1.000000  1.000000  1.000000  1.000000
 Range of M.O.s used for correlation:     4   114
 NBasis=   114 NAE=    15 NBE=    15 NFC=     3 NFV=     0
 NROrb=    111 NOA=    12 NOB=    12 NVA=    99 NVB=    99
 Fully direct method using O(ONN) memory.
 JobTyp=1 Pass  1:  I=   4 to  15 NPSUse=  1 ParTrn=F ParDer=F DoDerP=T.
 Spin components of T(2) and E(2):
     alpha-alpha T2 =       0.2724826981D-01 E2=     -0.9197571188D-01
     alpha-beta  T2 =       0.1441258384D+00 E2=     -0.5103150802D+00
     beta-beta   T2 =       0.2724826981D-01 E2=     -0.9197571188D-01
 ANorm=    0.1094816139D+01
 E2 =    -0.6942665039D+00 EUMP2 =    -0.22823545439384D+03
 DoAtom=TTTTTTTT
          Differentiating once with respect to electric field.
                with respect to dipole field.
          Differentiating once with respect to nuclear coordinates.
          Store integrals in memory, NReq=    27178384.
          There are   1 degrees of freedom in the 1st order CPHF.
     1 vectors were produced by pass  0.
 AX will form   1 AO Fock derivatives at one time.
     1 vectors were produced by pass  1.
     1 vectors were produced by pass  2.
     1 vectors were produced by pass  3.
     1 vectors were produced by pass  4.
     1 vectors were produced by pass  5.
     1 vectors were produced by pass  6.
     1 vectors were produced by pass  7.
     1 vectors were produced by pass  8.
     1 vectors were produced by pass  9.
     1 vectors were produced by pass 10.
     1 vectors were produced by pass 11.
     1 vectors were produced by pass 12.
 Inv2:  IOpt= 1 Iter= 1 AM= 5.35D-16 Conv= 1.00D-12.
 Inverted reduced A of dimension   13 with in-core refinement.
 End of Minotr Frequency-dependent properties file   721 does not exist.
 ***** Axes restored to original set *****
 -------------------------------------------------------------------
 Center     Atomic                   Forces (Hartrees/Bohr)
 Number     Number              X              Y              Z
 -------------------------------------------------------------------
    1          8          -0.004165351    0.003100072    0.001654212
    2          8           0.000284529   -0.002418168    0.001369932
    3          8           0.001527170    0.001087276   -0.002078800
    4          1           0.002773883   -0.000285756    0.003955193
    5          1           0.002298305   -0.001706268   -0.000909410
    6          1          -0.001110812   -0.000969866   -0.004628028
    7          1          -0.000253789    0.001628787   -0.000223262
    8          1          -0.001353935   -0.000436077    0.000860162
 -------------------------------------------------------------------
 Cartesian Forces:  Max     0.004628028 RMS     0.002110508

 GradGradGradGradGradGradGradGradGradGradGradGradGradGradGradGradGradGrad
 Berny optimization.
 Internal  Forces:  Max     0.003867895 RMS     0.001816639
 Search for a local minimum.
 Step number   3 out of a maximum of  30
 All quantities printed in internal units (Hartrees-Bohrs-Radians)
 Update second derivatives using D2CorX and points  1  2  3
 Trust test= 1.31D+00 RLast= 2.04D-01 DXMaxT set to 6.00D-01
 The second derivative matrix:
                          R1        R2        R3        R4        R5
           R1           0.12291
           R2          -0.03196   0.65481
           R3           0.00033  -0.03202   0.12298
           R4           0.02219  -0.01705   0.02224   0.34516
           R5          -0.02659   0.03568  -0.02664  -0.00876   0.62308
           R6           0.02220  -0.01715   0.02225  -0.00156  -0.00884
           R7          -0.02659   0.03567  -0.02664  -0.00875   0.02322
           A1          -0.00049  -0.00137  -0.00049   0.00126  -0.00127
           A2           0.00097   0.00272   0.00097  -0.00251   0.00252
           A3          -0.00048  -0.00135  -0.00048   0.00124  -0.00125
           A4           0.02260  -0.00684   0.02266  -0.00887  -0.00045
           A5           0.02261  -0.00688   0.02267  -0.00885  -0.00048
           A6           0.00230   0.02215   0.00231  -0.01701   0.01916
           A7           0.00229   0.02213   0.00231  -0.01699   0.01914
           A8           0.00107   0.00291   0.00107  -0.00270   0.00270
           A9           0.00107   0.00292   0.00107  -0.00272   0.00272
           D1          -0.00088   0.00178  -0.00088  -0.00069   0.00127
           D2           0.00039  -0.00256   0.00039   0.00154  -0.00204
           D3           0.00039  -0.00256   0.00039   0.00153  -0.00203
           D4          -0.00088   0.00178  -0.00088  -0.00069   0.00127
                          R6        R7        A1        A2        A3
           R6           0.34544
           R7          -0.00884   0.62308
           A1           0.00126  -0.00127   0.15994
           A2          -0.00250   0.00252   0.00011   0.15978
           A3           0.00124  -0.00125  -0.00005   0.00011   0.15995
           A4          -0.00879  -0.00045   0.00149  -0.00296   0.00147
           A5          -0.00877  -0.00048   0.00149  -0.00296   0.00147
           A6          -0.01701   0.01916   0.00051  -0.00100   0.00049
           A7          -0.01699   0.01914   0.00050  -0.00100   0.00049
           A8          -0.00270   0.00270   0.00012  -0.00024   0.00012
           A9          -0.00271   0.00272   0.00012  -0.00024   0.00012
           D1          -0.00069   0.00127  -0.00003   0.00007  -0.00003
           D2           0.00154  -0.00204  -0.00001   0.00003  -0.00001
           D3           0.00154  -0.00203  -0.00001   0.00003  -0.00001
           D4          -0.00069   0.00127  -0.00003   0.00007  -0.00003
                          A4        A5        A6        A7        A8
           A4           0.15015
           A5          -0.00983   0.15020
           A6          -0.02037  -0.02038   0.24701
           A7          -0.02035  -0.02035  -0.00299   0.24702
           A8          -0.00334  -0.00334  -0.00106  -0.00105   0.24974
           A9          -0.00336  -0.00336  -0.00106  -0.00106  -0.00026
           D1          -0.00035  -0.00035   0.00061   0.00061   0.00008
           D2           0.00130   0.00130  -0.00010  -0.00010   0.00003
           D3           0.00130   0.00130  -0.00010  -0.00010   0.00003
           D4          -0.00035  -0.00036   0.00061   0.00061   0.00008
                          A9        D1        D2        D3        D4
           A9           0.24974
           D1           0.00008   0.00231
           D2           0.00003  -0.00004   0.00233
           D3           0.00003  -0.00004   0.00003   0.00233
           D4           0.00008   0.00001  -0.00004  -0.00004   0.00231
     Eigenvalues ---    0.00220   0.00230   0.00230   0.06486   0.12262
     Eigenvalues ---    0.15759   0.16000   0.16000   0.16405   0.21523
     Eigenvalues ---    0.25000   0.25000   0.25020   0.34685   0.35227
     Eigenvalues ---    0.59986   0.60022   0.717981000.000001000.00000
 RFO step:  Lambda=-3.68672428D-04.
 Quartic linear search produced a step of  0.45861.
 Iteration  1 RMS(Cart)=  0.04095160 RMS(Int)=  0.00238875
 Iteration  2 RMS(Cart)=  0.00249792 RMS(Int)=  0.00005272
 Iteration  3 RMS(Cart)=  0.00000596 RMS(Int)=  0.00005257
 Iteration  4 RMS(Cart)=  0.00000000 RMS(Int)=  0.00005257
 Variable       Old X    -DE/DX   Delta X   Delta X   Delta X     New X
                                 (Linear)    (Quad)   (Total)
    R1        2.79469   0.00386   0.01832   0.03034   0.04866   2.84335
    R2        1.83265  -0.00300   0.00379  -0.00332   0.00047   1.83312
    R3        2.79419   0.00387   0.01836   0.03039   0.04875   2.84294
    R4        1.98712  -0.00031  -0.00874  -0.00254  -0.01128   1.97584
    R5        1.82640  -0.00159   0.00419  -0.00142   0.00277   1.82917
    R6        1.98693  -0.00029  -0.00872  -0.00250  -0.01122   1.97571
    R7        1.82640  -0.00159   0.00419  -0.00142   0.00277   1.82917
    A1        1.89877   0.00021   0.00119   0.00149   0.00268   1.90145
    A2        2.48551  -0.00042  -0.00235  -0.00296  -0.00531   2.48020
    A3        1.89891   0.00021   0.00116   0.00147   0.00263   1.90154
    A4        1.79757  -0.00080  -0.03031   0.00016  -0.03015   1.76742
    A5        1.79752  -0.00080  -0.03031   0.00019  -0.03012   1.76740
    A6        3.17207  -0.00288  -0.00702  -0.01521  -0.02217   3.14990
    A7        3.17203  -0.00287  -0.00701  -0.01520  -0.02215   3.14989
    A8        3.16808  -0.00037  -0.00158  -0.00232  -0.00388   3.16420
    A9        3.16827  -0.00037  -0.00158  -0.00233  -0.00389   3.16438
    D1        1.11912  -0.00074   0.03626   0.02490   0.06105   1.18017
    D2       -2.04540   0.00111   0.04087   0.03487   0.07585  -1.96955
    D3       -2.04492   0.00110   0.04064   0.03466   0.07541  -1.96950
    D4        1.12032  -0.00074   0.03622   0.02488   0.06099   1.18131
         Item               Value     Threshold  Converged?
 Maximum Force            0.003868     0.000450     NO 
 RMS     Force            0.001817     0.000300     NO 
 Maximum Displacement     0.075779     0.001800     NO 
 RMS     Displacement     0.041592     0.001200     NO 
 Predicted change in Energy=-3.369888D-04
 GradGradGradGradGradGradGradGradGradGradGradGradGradGradGradGradGradGrad

                          Input orientation:                          
 ---------------------------------------------------------------------
 Center     Atomic     Atomic              Coordinates (Angstroms)
 Number     Number      Type              X           Y           Z
 ---------------------------------------------------------------------
    1          8             0       -0.393447    0.291819    0.155212
    2          8             0       -1.217094   -1.353910   -1.609786
    3          8             0        1.712391    0.986813    1.414268
    4          1             0        0.847730    0.711227    0.895145
    5          1             0       -1.136247    0.842339    0.448747
    6          1             0       -0.886424   -0.682298   -0.879847
    7          1             0       -1.122591   -2.198463   -1.146394
    8          1             0        2.248182    1.364567    0.702114
 ---------------------------------------------------------------------
                    Distance matrix (angstroms):
                    1          2          3          4          5
     1  O    0.000000
     2  O    2.549909   0.000000
     3  O    2.550057   4.817237   0.000000
     4  H    1.504634   3.847463   1.045502   0.000000
     5  H    0.970045   3.011247   3.011286   2.037799   0.000000
     6  H    1.504419   1.045570   3.847432   2.846015   2.037668
     7  H    2.902987   0.967953   4.973942   4.064031   3.433823
     8  H    2.903118   4.974247   0.967953   1.557363   3.433842
                    6          7          8
     6  H    0.000000
     7  H    1.557427   0.000000
     8  H    4.064236   5.241591   0.000000
 Stoichiometry    H5O3(1-)
 Framework group  C1[X(H5O3)]
 Deg. of freedom    18
 Full point group                 C1
 Largest Abelian subgroup         C1      NOp   1
 Largest concise Abelian subgroup C1      NOp   1
                         Standard orientation:                         
 ---------------------------------------------------------------------
 Center     Atomic     Atomic              Coordinates (Angstroms)
 Number     Number      Type              X           Y           Z
 ---------------------------------------------------------------------
    1          8             0        0.000060    0.548281    0.000034
    2          8             0        2.406659   -0.288928    0.096981
    3          8             0       -2.406671   -0.288990   -0.097003
    4          1             0       -1.422185    0.059697   -0.049261
    5          1             0        0.000011    1.518326   -0.000403
    6          1             0        1.422124    0.059827    0.049244
    7          1             0        2.503806   -0.700758   -0.773589
    8          1             0       -2.504137   -0.699993    0.773922
 ---------------------------------------------------------------------
 Rotational constants (GHZ):     41.2830720      2.4832716      2.3741567
 Standard basis: Aug-CC-pVDZ (5D, 7F)
 There are   114 symmetry adapted basis functions of A   symmetry.
 Integral buffers will be    131072 words long.
 Raffenetti 1 integral format.
 Two-electron integral symmetry is turned on.
   114 basis functions,   184 primitive gaussians,   120 cartesian basis functions
    15 alpha electrons       15 beta electrons
       nuclear repulsion energy        72.1157362386 Hartrees.
 NAtoms=    8 NActive=    8 NUniq=    8 SFac= 7.50D-01 NAtFMM=   80 NAOKFM=F Big=F
 One-electron integrals computed using PRISM.
 NBasis=   114 RedAO= T  NBF=   114
 NBsUse=   114 1.00D-06 NBFU=   114
 Initial guess read from the read-write file:
 Initial guess orbital symmetries:
       Occupied  (A) (A) (A) (A) (A) (A) (A) (A) (A) (A) (A) (A)
                 (A) (A) (A)
       Virtual   (A) (A) (A) (A) (A) (A) (A) (A) (A) (A) (A) (A)
                 (A) (A) (A) (A) (A) (A) (A) (A) (A) (A) (A) (A)
                 (A) (A) (A) (A) (A) (A) (A) (A) (A) (A) (A) (A)
                 (A) (A) (A) (A) (A) (A) (A) (A) (A) (A) (A) (A)
                 (A) (A) (A) (A) (A) (A) (A) (A) (A) (A) (A) (A)
                 (A) (A) (A) (A) (A) (A) (A) (A) (A) (A) (A) (A)
                 (A) (A) (A) (A) (A) (A) (A) (A) (A) (A) (A) (A)
                 (A) (A) (A) (A) (A) (A) (A) (A) (A) (A) (A) (A)
                 (A) (A) (A)
 Harris functional with IExCor=  205 diagonalized for initial guess.
 ExpMin= 2.97D-02 ExpMax= 1.17D+04 ExpMxC= 4.01D+02 IAcc=3 IRadAn=         5 AccDes= 0.00D+00
 HarFok:  IExCor= 205 AccDes= 0.00D+00 IRadAn=         5 IDoV=1
 ScaDFX=  1.000000  1.000000  1.000000  1.000000
 Requested convergence on RMS density matrix=1.00D-08 within 128 cycles.
 Requested convergence on MAX density matrix=1.00D-06.
 Requested convergence on             energy=1.00D-06.
 No special actions if energy rises.
 Keep R1 integrals in memory in canonical form, NReq=    28132114.
 SCF Done:  E(RHF) =  -227.541903489     A.U. after   11 cycles
             Convg  =    0.2957D-08             -V/T =  2.0017
             S**2   =   0.0000
 ExpMin= 2.97D-02 ExpMax= 1.17D+04 ExpMxC= 4.01D+02 IAcc=3 IRadAn=         5 AccDes= 0.00D+00
 HarFok:  IExCor= 205 AccDes= 0.00D+00 IRadAn=         5 IDoV=1
 ScaDFX=  1.000000  1.000000  1.000000  1.000000
 Range of M.O.s used for correlation:     4   114
 NBasis=   114 NAE=    15 NBE=    15 NFC=     3 NFV=     0
 NROrb=    111 NOA=    12 NOB=    12 NVA=    99 NVB=    99
 Fully direct method using O(ONN) memory.
 JobTyp=1 Pass  1:  I=   4 to  15 NPSUse=  1 ParTrn=F ParDer=F DoDerP=T.
 Spin components of T(2) and E(2):
     alpha-alpha T2 =       0.2724230154D-01 E2=     -0.9187017560D-01
     alpha-beta  T2 =       0.1442560018D+00 E2=     -0.5102615056D+00
     beta-beta   T2 =       0.2724230154D-01 E2=     -0.9187017560D-01
 ANorm=    0.1094870132D+01
 E2 =    -0.6940018568D+00 EUMP2 =    -0.22823590534557D+03
 DoAtom=TTTTTTTT
          Differentiating once with respect to electric field.
                with respect to dipole field.
          Differentiating once with respect to nuclear coordinates.
          Store integrals in memory, NReq=    27178384.
          There are   1 degrees of freedom in the 1st order CPHF.
     1 vectors were produced by pass  0.
 AX will form   1 AO Fock derivatives at one time.
     1 vectors were produced by pass  1.
     1 vectors were produced by pass  2.
     1 vectors were produced by pass  3.
     1 vectors were produced by pass  4.
     1 vectors were produced by pass  5.
     1 vectors were produced by pass  6.
     1 vectors were produced by pass  7.
     1 vectors were produced by pass  8.
     1 vectors were produced by pass  9.
     1 vectors were produced by pass 10.
     1 vectors were produced by pass 11.
     1 vectors were produced by pass 12.
 Inv2:  IOpt= 1 Iter= 1 AM= 2.78D-16 Conv= 1.00D-12.
 Inverted reduced A of dimension   13 with in-core refinement.
 End of Minotr Frequency-dependent properties file   721 does not exist.
 ***** Axes restored to original set *****
 -------------------------------------------------------------------
 Center     Atomic                   Forces (Hartrees/Bohr)
 Number     Number              X              Y              Z
 -------------------------------------------------------------------
    1          8          -0.003467418    0.002579344    0.001377328
    2          8           0.000844656   -0.003516732    0.003755146
    3          8           0.001470852    0.001809326   -0.004665386
    4          1           0.000943117   -0.001100046    0.004018838
    5          1           0.002314322   -0.001716407   -0.000915263
    6          1          -0.000746385    0.000938303   -0.004108399
    7          1          -0.000697324    0.001707719   -0.002035188
    8          1          -0.000661820   -0.000701508    0.002572924
 -------------------------------------------------------------------
 Cartesian Forces:  Max     0.004665386 RMS     0.002378370

 GradGradGradGradGradGradGradGradGradGradGradGradGradGradGradGradGradGrad
 Berny optimization.
 Internal  Forces:  Max     0.003023217 RMS     0.001679927
 Search for a local minimum.
 Step number   4 out of a maximum of  30
 All quantities printed in internal units (Hartrees-Bohrs-Radians)
 Update second derivatives using D2CorX and points  1  2  3  4
 Trust test= 1.34D+00 RLast= 1.64D-01 DXMaxT set to 6.00D-01
 The second derivative matrix:
                          R1        R2        R3        R4        R5
           R1           0.10467
           R2          -0.01131   0.63142
           R3          -0.01796  -0.01134   0.10464
           R4           0.02082  -0.01023   0.02088   0.33930
           R5          -0.01252   0.02393  -0.01255  -0.00492   0.62033
           R6           0.02077  -0.01026   0.02082  -0.00743  -0.00495
           R7          -0.01252   0.02394  -0.01256  -0.00491   0.02048
           A1          -0.00159  -0.00051  -0.00159   0.00141  -0.00078
           A2           0.00315   0.00102   0.00316  -0.00279   0.00155
           A3          -0.00156  -0.00051  -0.00157   0.00138  -0.00077
           A4           0.01929  -0.01448   0.01938  -0.00895  -0.01400
           A5           0.01928  -0.01448   0.01937  -0.00894  -0.01400
           A6           0.01985   0.00973   0.01990  -0.01890   0.01358
           A7           0.01982   0.00972   0.01988  -0.01888   0.01357
           A8           0.00367   0.00103   0.00368  -0.00309   0.00174
           A9           0.00368   0.00104   0.00369  -0.00310   0.00175
           D1          -0.00126   0.00146  -0.00126  -0.00026   0.00087
           D2           0.00026  -0.00092   0.00025   0.00085  -0.00038
           D3           0.00026  -0.00092   0.00026   0.00085  -0.00038
           D4          -0.00126   0.00146  -0.00126  -0.00026   0.00087
                          R6        R7        A1        A2        A3
           R6           0.33956
           R7          -0.00495   0.62035
           A1           0.00140  -0.00078   0.15988
           A2          -0.00278   0.00155   0.00025   0.15951
           A3           0.00138  -0.00077  -0.00012   0.00024   0.15988
           A4          -0.00889  -0.01400   0.00173  -0.00344   0.00171
           A5          -0.00888  -0.01401   0.00173  -0.00344   0.00171
           A6          -0.01884   0.01359   0.00151  -0.00300   0.00148
           A7          -0.01882   0.01358   0.00151  -0.00299   0.00148
           A8          -0.00307   0.00174   0.00028  -0.00055   0.00027
           A9          -0.00309   0.00175   0.00028  -0.00055   0.00027
           D1          -0.00026   0.00087  -0.00006   0.00013  -0.00006
           D2           0.00085  -0.00038  -0.00003   0.00005  -0.00003
           D3           0.00085  -0.00038  -0.00003   0.00005  -0.00003
           D4          -0.00026   0.00087  -0.00006   0.00013  -0.00006
                          A4        A5        A6        A7        A8
           A4           0.17959
           A5           0.01960   0.17962
           A6          -0.02882  -0.02880   0.23292
           A7          -0.02879  -0.02878  -0.01705   0.23297
           A8          -0.00422  -0.00422  -0.00334  -0.00333   0.24938
           A9          -0.00425  -0.00425  -0.00335  -0.00335  -0.00062
           D1           0.00027   0.00027   0.00094   0.00094   0.00014
           D2          -0.00075  -0.00075   0.00047   0.00047   0.00008
           D3          -0.00074  -0.00074   0.00047   0.00047   0.00008
           D4           0.00028   0.00027   0.00094   0.00094   0.00014
                          A9        D1        D2        D3        D4
           A9           0.24937
           D1           0.00014   0.00229
           D2           0.00008  -0.00005   0.00241
           D3           0.00008  -0.00005   0.00011   0.00241
           D4           0.00014  -0.00001  -0.00005  -0.00005   0.00229
     Eigenvalues ---    0.00220   0.00230   0.00230   0.04114   0.12262
     Eigenvalues ---    0.15856   0.16000   0.16000   0.16968   0.23671
     Eigenvalues ---    0.25000   0.25000   0.25081   0.34267   0.34686
     Eigenvalues ---    0.59986   0.60216   0.677611000.000001000.00000
 RFO step:  Lambda=-2.40406060D-04.
 Quartic linear search produced a step of  0.72793.
 Iteration  1 RMS(Cart)=  0.04646547 RMS(Int)=  0.00277109
 Iteration  2 RMS(Cart)=  0.00283888 RMS(Int)=  0.00001692
 Iteration  3 RMS(Cart)=  0.00000738 RMS(Int)=  0.00001618
 Iteration  4 RMS(Cart)=  0.00000000 RMS(Int)=  0.00001618
 Variable       Old X    -DE/DX   Delta X   Delta X   Delta X     New X
                                 (Linear)    (Quad)   (Total)
    R1        2.84335   0.00239   0.03542   0.01629   0.05171   2.89505
    R2        1.83312  -0.00302   0.00034  -0.00314  -0.00280   1.83032
    R3        2.84294   0.00240   0.03549   0.01635   0.05184   2.89478
    R4        1.97584  -0.00008  -0.00821  -0.00293  -0.01114   1.96470
    R5        1.82917  -0.00253   0.00202  -0.00327  -0.00125   1.82791
    R6        1.97571  -0.00007  -0.00817  -0.00292  -0.01108   1.96463
    R7        1.82917  -0.00253   0.00202  -0.00327  -0.00125   1.82791
    A1        1.90145   0.00016   0.00195   0.00114   0.00309   1.90454
    A2        2.48020  -0.00032  -0.00386  -0.00227  -0.00614   2.47407
    A3        1.90154   0.00016   0.00191   0.00113   0.00305   1.90458
    A4        1.76742   0.00194  -0.02195   0.01217  -0.00978   1.75764
    A5        1.76740   0.00195  -0.02192   0.01217  -0.00976   1.75765
    A6        3.14990  -0.00250  -0.01614  -0.01236  -0.02847   3.12142
    A7        3.14989  -0.00250  -0.01612  -0.01235  -0.02845   3.12144
    A8        3.16420  -0.00028  -0.00282  -0.00174  -0.00456   3.15964
    A9        3.16438  -0.00028  -0.00284  -0.00175  -0.00459   3.15979
    D1        1.18017  -0.00070   0.04444   0.02469   0.06910   1.24927
    D2       -1.96955   0.00089   0.05521   0.03285   0.08809  -1.88146
    D3       -1.96950   0.00089   0.05490   0.03273   0.08766  -1.88184
    D4        1.18131  -0.00070   0.04440   0.02469   0.06905   1.25036
         Item               Value     Threshold  Converged?
 Maximum Force            0.003023     0.000450     NO 
 RMS     Force            0.001680     0.000300     NO 
 Maximum Displacement     0.106246     0.001800     NO 
 RMS     Displacement     0.047308     0.001200     NO 
 Predicted change in Energy=-2.215090D-04
 GradGradGradGradGradGradGradGradGradGradGradGradGradGradGradGradGradGrad

                          Input orientation:                          
 ---------------------------------------------------------------------
 Center     Atomic     Atomic              Coordinates (Angstroms)
 Number     Number      Type              X           Y           Z
 ---------------------------------------------------------------------
    1          8             0       -0.389061    0.288629    0.153463
    2          8             0       -1.203633   -1.372124   -1.632667
    3          8             0        1.741132    0.973776    1.420468
    4          1             0        0.872485    0.697651    0.920416
    5          1             0       -1.130774    0.838202    0.446628
    6          1             0       -0.882031   -0.690316   -0.916685
    7          1             0       -1.178815   -2.193563   -1.122498
    8          1             0        2.223198    1.419839    0.710334
 ---------------------------------------------------------------------
                    Distance matrix (angstroms):
                    1          2          3          4          5
     1  O    0.000000
     2  O    2.571360   0.000000
     3  O    2.571468   4.847321   0.000000
     4  H    1.531996   3.887476   1.039637   0.000000
     5  H    0.968564   3.035510   3.035554   2.063317   0.000000
     6  H    1.531852   1.039673   3.887476   2.894775   2.063217
     7  H    2.900528   0.967290   5.002479   4.091509   3.414098
     8  H    2.900627   5.002788   0.967290   1.546000   3.414231
                    6          7          8
     6  H    0.000000
     7  H    1.546024   0.000000
     8  H    4.091747   5.290523   0.000000
 Stoichiometry    H5O3(1-)
 Framework group  C1[X(H5O3)]
 Deg. of freedom    18
 Full point group                 C1
 Largest Abelian subgroup         C1      NOp   1
 Largest concise Abelian subgroup C1      NOp   1
                         Standard orientation:                         
 ---------------------------------------------------------------------
 Center     Atomic     Atomic              Coordinates (Angstroms)
 Number     Number      Type              X           Y           Z
 ---------------------------------------------------------------------
    1          8             0        0.000043    0.557258    0.000060
    2          8             0        2.421618   -0.301804    0.099441
    3          8             0       -2.421621   -0.301863   -0.099462
    4          1             0       -1.445748    0.055340   -0.069073
    5          1             0        0.000025    1.525822   -0.000518
    6          1             0        1.445728    0.055460    0.069067
    7          1             0        2.519907   -0.633022   -0.804044
    8          1             0       -2.520231   -0.632329    0.804263
 ---------------------------------------------------------------------
 Rotational constants (GHZ):     40.1229305      2.4504480      2.3427538
 Standard basis: Aug-CC-pVDZ (5D, 7F)
 There are   114 symmetry adapted basis functions of A   symmetry.
 Integral buffers will be    131072 words long.
 Raffenetti 1 integral format.
 Two-electron integral symmetry is turned on.
   114 basis functions,   184 primitive gaussians,   120 cartesian basis functions
    15 alpha electrons       15 beta electrons
       nuclear repulsion energy        71.7507299930 Hartrees.
 NAtoms=    8 NActive=    8 NUniq=    8 SFac= 7.50D-01 NAtFMM=   80 NAOKFM=F Big=F
 One-electron integrals computed using PRISM.
 NBasis=   114 RedAO= T  NBF=   114
 NBsUse=   114 1.00D-06 NBFU=   114
 Initial guess read from the read-write file:
 Initial guess orbital symmetries:
       Occupied  (A) (A) (A) (A) (A) (A) (A) (A) (A) (A) (A) (A)
                 (A) (A) (A)
       Virtual   (A) (A) (A) (A) (A) (A) (A) (A) (A) (A) (A) (A)
                 (A) (A) (A) (A) (A) (A) (A) (A) (A) (A) (A) (A)
                 (A) (A) (A) (A) (A) (A) (A) (A) (A) (A) (A) (A)
                 (A) (A) (A) (A) (A) (A) (A) (A) (A) (A) (A) (A)
                 (A) (A) (A) (A) (A) (A) (A) (A) (A) (A) (A) (A)
                 (A) (A) (A) (A) (A) (A) (A) (A) (A) (A) (A) (A)
                 (A) (A) (A) (A) (A) (A) (A) (A) (A) (A) (A) (A)
                 (A) (A) (A) (A) (A) (A) (A) (A) (A) (A) (A) (A)
                 (A) (A) (A)
 Harris functional with IExCor=  205 diagonalized for initial guess.
 ExpMin= 2.97D-02 ExpMax= 1.17D+04 ExpMxC= 4.01D+02 IAcc=3 IRadAn=         5 AccDes= 0.00D+00
 HarFok:  IExCor= 205 AccDes= 0.00D+00 IRadAn=         5 IDoV=1
 ScaDFX=  1.000000  1.000000  1.000000  1.000000
 Requested convergence on RMS density matrix=1.00D-08 within 128 cycles.
 Requested convergence on MAX density matrix=1.00D-06.
 Requested convergence on             energy=1.00D-06.
 No special actions if energy rises.
 Keep R1 integrals in memory in canonical form, NReq=    28132114.
 SCF Done:  E(RHF) =  -227.542896249     A.U. after   11 cycles
             Convg  =    0.2762D-08             -V/T =  2.0017
             S**2   =   0.0000
 ExpMin= 2.97D-02 ExpMax= 1.17D+04 ExpMxC= 4.01D+02 IAcc=3 IRadAn=         5 AccDes= 0.00D+00
 HarFok:  IExCor= 205 AccDes= 0.00D+00 IRadAn=         5 IDoV=1
 ScaDFX=  1.000000  1.000000  1.000000  1.000000
 Range of M.O.s used for correlation:     4   114
 NBasis=   114 NAE=    15 NBE=    15 NFC=     3 NFV=     0
 NROrb=    111 NOA=    12 NOB=    12 NVA=    99 NVB=    99
 Fully direct method using O(ONN) memory.
 JobTyp=1 Pass  1:  I=   4 to  15 NPSUse=  1 ParTrn=F ParDer=F DoDerP=T.
 Spin components of T(2) and E(2):
     alpha-alpha T2 =       0.2719839913D-01 E2=     -0.9170613876D-01
     alpha-beta  T2 =       0.1441700749D+00 E2=     -0.5098959336D+00
     beta-beta   T2 =       0.2719839913D-01 E2=     -0.9170613876D-01
 ANorm=    0.1094790790D+01
 E2 =    -0.6933082111D+00 EUMP2 =    -0.22823620446049D+03
 DoAtom=TTTTTTTT
          Differentiating once with respect to electric field.
                with respect to dipole field.
          Differentiating once with respect to nuclear coordinates.
          Store integrals in memory, NReq=    27178384.
          There are   1 degrees of freedom in the 1st order CPHF.
     1 vectors were produced by pass  0.
 AX will form   1 AO Fock derivatives at one time.
     1 vectors were produced by pass  1.
     1 vectors were produced by pass  2.
     1 vectors were produced by pass  3.
     1 vectors were produced by pass  4.
     1 vectors were produced by pass  5.
     1 vectors were produced by pass  6.
     1 vectors were produced by pass  7.
     1 vectors were produced by pass  8.
     1 vectors were produced by pass  9.
     1 vectors were produced by pass 10.
     1 vectors were produced by pass 11.
     1 vectors were produced by pass 12.
 Inv2:  IOpt= 1 Iter= 1 AM= 3.80D-16 Conv= 1.00D-12.
 Inverted reduced A of dimension   13 with in-core refinement.
 End of Minotr Frequency-dependent properties file   721 does not exist.
 ***** Axes restored to original set *****
 -------------------------------------------------------------------
 Center     Atomic                   Forces (Hartrees/Bohr)
 Number     Number              X              Y              Z
 -------------------------------------------------------------------
    1          8          -0.001478494    0.001100992    0.000589338
    2          8           0.000493230   -0.002480534    0.003686522
    3          8           0.000537436    0.001719774   -0.004091503
    4          1          -0.000069734   -0.001339278    0.002787208
    5          1           0.001018389   -0.000754552   -0.000402794
    6          1          -0.000139620    0.001487671   -0.002711079
    7          1          -0.000458153    0.000896998   -0.002065974
    8          1           0.000096946   -0.000631071    0.002208283
 -------------------------------------------------------------------
 Cartesian Forces:  Max     0.004091503 RMS     0.001770174

 GradGradGradGradGradGradGradGradGradGradGradGradGradGradGradGradGradGrad
 Berny optimization.
 Internal  Forces:  Max     0.002461622 RMS     0.001203271
 Search for a local minimum.
 Step number   5 out of a maximum of  30
 All quantities printed in internal units (Hartrees-Bohrs-Radians)
 Update second derivatives using D2CorX and points  2  3  4  5
 Trust test= 1.35D+00 RLast= 1.80D-01 DXMaxT set to 6.00D-01
 The second derivative matrix:
                          R1        R2        R3        R4        R5
           R1           0.10016
           R2          -0.00377   0.61948
           R3          -0.02250  -0.00375   0.10007
           R4           0.02131  -0.01065   0.02137   0.33967
           R5          -0.00183   0.01067  -0.00183  -0.00533   0.61004
           R6           0.02124  -0.01066   0.02130  -0.00706  -0.00533
           R7          -0.00183   0.01066  -0.00183  -0.00533   0.01018
           A1          -0.00224   0.00027  -0.00225   0.00144  -0.00009
           A2           0.00445  -0.00053   0.00446  -0.00285   0.00018
           A3          -0.00221   0.00027  -0.00222   0.00142  -0.00009
           A4           0.00476   0.00193   0.00482  -0.00892  -0.00613
           A5           0.00476   0.00193   0.00481  -0.00891  -0.00612
           A6           0.03137  -0.00455   0.03147  -0.01934   0.00117
           A7           0.03135  -0.00455   0.03145  -0.01932   0.00117
           A8           0.00527  -0.00090   0.00529  -0.00314   0.00008
           A9           0.00530  -0.00091   0.00532  -0.00316   0.00009
           D1          -0.00200   0.00202  -0.00200  -0.00028   0.00072
[...]
   6   1     0.11   0.18   0.56    -0.65   0.26   0.07    -0.64   0.28   0.05
   7   1     0.34  -0.11   0.07     0.03  -0.02  -0.02     0.03  -0.02  -0.03
   8   1    -0.34  -0.11  -0.07     0.03   0.02  -0.02    -0.03  -0.02   0.03
                    16                     17                     18
                     A                      A                      A
 Frequencies --  3837.2017              3877.4493              3877.8571
 Red. masses --     1.0664                 1.0647                 1.0648
 Frc consts  --     9.2509                 9.4311                 9.4340
 IR Inten    --     1.5954                15.9907                 5.0169
 Atom AN      X      Y      Z        X      Y      Z        X      Y      Z
   1   8     0.00  -0.06   0.00     0.00   0.00   0.00     0.00   0.00   0.00
   2   8     0.00   0.00   0.00    -0.01   0.02   0.04     0.01  -0.02  -0.04
   3   8     0.00   0.00   0.00    -0.01  -0.02   0.04    -0.01  -0.02   0.04
   4   1     0.01  -0.01   0.00     0.02   0.00   0.02     0.03   0.00   0.02
   5   1     0.00   1.00   0.00     0.00   0.00   0.00     0.00   0.03   0.00
   6   1    -0.01  -0.01   0.00     0.02   0.00   0.02    -0.03   0.00  -0.02
   7   1     0.00  -0.01  -0.02     0.07  -0.26  -0.65    -0.07   0.26   0.65
   8   1     0.00  -0.01   0.02     0.07   0.26  -0.65     0.07   0.26  -0.65

 -------------------
 - Thermochemistry -
 -------------------
 Temperature   298.150 Kelvin.  Pressure   1.00000 Atm.
 Atom  1 has atomic number  8 and mass  15.99491
 Atom  2 has atomic number  8 and mass  15.99491
 Atom  3 has atomic number  8 and mass  15.99491
 Atom  4 has atomic number  1 and mass   1.00783
 Atom  5 has atomic number  1 and mass   1.00783
 Atom  6 has atomic number  1 and mass   1.00783
 Atom  7 has atomic number  1 and mass   1.00783
 Atom  8 has atomic number  1 and mass   1.00783
 Molecular mass:    53.02387 amu.
 Principal axes and moments of inertia in atomic units:
                           1         2         3
     EIGENVALUES --    49.15171 732.37768 770.50173
           X            0.99983  -0.00003  -0.01828
           Y            0.00003   1.00000  -0.00010
           Z            0.01828   0.00010   0.99983
 This molecule is an asymmetric top.
 Rotational symmetry number  1.
 Rotational temperatures (Kelvin)      1.76217     0.11826     0.11241
 Rotational constants (GHZ):          36.71777     2.46422     2.34229
    1 imaginary frequencies ignored.
 Zero-point vibrational energy     149751.6 (Joules/Mol)
                                   35.79149 (Kcal/Mol)
 Warning -- explicit consideration of   8 degrees of freedom as
           vibrations may cause significant error
 Vibrational temperatures:     74.15   210.30   307.33   390.87   525.30
          (Kelvin)            695.14   767.44   818.73  1637.75  1681.64
                             2419.49  2436.97  3559.23  3818.57  5520.87
                             5578.78  5579.36
 
 Zero-point correction=                           0.057037 (Hartree/Particle)
 Thermal correction to Energy=                    0.063353
 Thermal correction to Enthalpy=                  0.064297
 Thermal correction to Gibbs Free Energy=         0.027838
 Sum of electronic and zero-point Energies=           -228.179334
 Sum of electronic and thermal Energies=              -228.173019
 Sum of electronic and thermal Enthalpies=            -228.172074
 Sum of electronic and thermal Free Energies=         -228.208534
 
                     E (Thermal)             CV                S
                      KCal/Mol        Cal/Mol-Kelvin    Cal/Mol-Kelvin
 Total                   39.755             19.051             76.735
 Electronic               0.000              0.000              0.000
 Translational            0.889              2.981             37.827
 Rotational               0.889              2.981             24.832
 Vibrational             37.977             13.090             14.076
 Vibration  1             0.596              1.977              4.758
 Vibration  2             0.617              1.907              2.722
 Vibration  3             0.644              1.820              2.013
 Vibration  4             0.675              1.725              1.586
 Vibration  5             0.738              1.544              1.100
 Vibration  6             0.839              1.287              0.702
 Vibration  7             0.888              1.176              0.580
 Vibration  8             0.925              1.098              0.506
                       Q            Log10(Q)             Ln(Q)
 Total Bot       0.156784D-12        -12.804697        -29.483905
 Total V=0       0.269536D+14         13.430616         30.925137
 Vib (Bot)       0.173289D-24        -24.761230        -57.014838
 Vib (Bot)  1    0.401071D+01          0.603221          1.388967
 Vib (Bot)  2    0.138878D+01          0.142634          0.328427
 Vib (Bot)  3    0.928474D+00         -0.032230         -0.074213
 Vib (Bot)  4    0.710787D+00         -0.148261         -0.341383
 Vib (Bot)  5    0.500311D+00         -0.300760         -0.692525
 Vib (Bot)  6    0.345228D+00         -0.461894         -1.063550
 Vib (Bot)  7    0.298883D+00         -0.524499         -1.207704
 Vib (Bot)  8    0.270715D+00         -0.567488         -1.306690
 Vib (V=0)       0.297909D+02          1.474084          3.394204
 Vib (V=0)  1    0.454175D+01          0.657223          1.513313
 Vib (V=0)  2    0.197605D+01          0.295797          0.681098
 Vib (V=0)  3    0.155454D+01          0.191603          0.441182
 Vib (V=0)  4    0.136903D+01          0.136414          0.314104
 Vib (V=0)  5    0.120733D+01          0.081825          0.188409
 Vib (V=0)  6    0.110760D+01          0.044384          0.102199
 Vib (V=0)  7    0.108252D+01          0.034436          0.079293
 Vib (V=0)  8    0.106858D+01          0.028808          0.066333
 Electronic      0.100000D+01          0.000000          0.000000
 Translational   0.151762D+08          7.181162         16.535237
 Rotational      0.596170D+05          4.775370         10.995696
 ***** Axes restored to original set *****
 -------------------------------------------------------------------
 Center     Atomic                   Forces (Hartrees/Bohr)
 Number     Number              X              Y              Z
 -------------------------------------------------------------------
    1          8           0.000016700   -0.000011391   -0.000007147
    2          8           0.000020011   -0.000013519   -0.000013307
    3          8           0.000021539   -0.000016838   -0.000003424
    4          1          -0.000028260    0.000027696    0.000011363
    5          1           0.000008060   -0.000006023   -0.000003168
    6          1          -0.000034940    0.000017610    0.000014415
    7          1          -0.000001445    0.000000607    0.000001693
    8          1          -0.000001664    0.000001858   -0.000000425
 -------------------------------------------------------------------
 Cartesian Forces:  Max     0.000034940 RMS     0.000015187

 GradGradGradGradGradGradGradGradGradGradGradGradGradGradGradGradGradGrad
 Berny optimization.
 Internal  Forces:  Max     0.000028770 RMS     0.000010498
 Search for a local minimum.
 Step number   1 out of a maximum of   2
 All quantities printed in internal units (Hartrees-Bohrs-Radians)
 Second derivative matrix not updated -- analytic derivatives used.
 The second derivative matrix:
                          R1        R2        R3        R4        R5
           R1           0.03978
           R2          -0.00166   0.52868
           R3           0.00155  -0.00166   0.03978
           R4          -0.00336   0.00040   0.06505   0.32222
           R5           0.00001  -0.00019  -0.00022  -0.00716   0.53977
           R6           0.06505   0.00040  -0.00336   0.00906  -0.00007
           R7          -0.00022  -0.00019   0.00001  -0.00007   0.00001
           A1           0.00129   0.00202  -0.00046  -0.00475   0.00001
           A2          -0.00083  -0.00404  -0.00083  -0.00260   0.00004
           A3          -0.00046   0.00202   0.00129   0.00736  -0.00005
           A4           0.00015  -0.00020   0.00509   0.01567   0.02657
           A5           0.00510  -0.00020   0.00015  -0.00024   0.00007
           A6           0.00481   0.00099   0.00020  -0.00022   0.00022
           A7           0.00020   0.00099   0.00481  -0.00324  -0.00484
           A8           0.00014  -0.00204  -0.00065   0.00197   0.00007
           A9          -0.00065  -0.00204   0.00014   0.00052   0.00005
           D1           0.00054   0.00015   0.00072  -0.00119  -0.00055
           D2          -0.00074  -0.00029  -0.00049   0.00144   0.00077
           D3          -0.00049  -0.00028  -0.00074   0.00113   0.00053
           D4           0.00072   0.00014   0.00054  -0.00096  -0.00051
                          R6        R7        A1        A2        A3
           R6           0.32221
           R7          -0.00716   0.53977
           A1           0.00736  -0.00005   0.01385
           A2          -0.00260   0.00004  -0.00312   0.00624
           A3          -0.00476   0.00001  -0.01073  -0.00312   0.01385
           A4          -0.00024   0.00007   0.00022   0.00002  -0.00023
           A5           0.01567   0.02657  -0.00023   0.00001   0.00021
           A6          -0.00324  -0.00484   0.00225  -0.00067  -0.00156
           A7          -0.00023   0.00022  -0.00159  -0.00067   0.00224
           A8           0.00052   0.00005  -0.00457   0.00234   0.00223
           A9           0.00196   0.00007   0.00223   0.00234  -0.00457
           D1          -0.00095  -0.00051   0.00016  -0.00037   0.00021
           D2           0.00112   0.00053  -0.00008  -0.00008   0.00016
           D3           0.00145   0.00078   0.00016  -0.00009  -0.00007
           D4          -0.00119  -0.00055   0.00022  -0.00036   0.00014
                          A4        A5        A6        A7        A8
           A4           0.11866
           A5           0.00025   0.11866
           A6           0.00113  -0.01652   0.03841
           A7          -0.01652   0.00113  -0.00478   0.03842
           A8           0.00056   0.00001  -0.00076  -0.00092   0.02229
           A9           0.00002   0.00056  -0.00093  -0.00077   0.00020
           D1          -0.00232  -0.00207   0.00428   0.00497   0.00054
           D2           0.00269   0.00199  -0.00451  -0.00561  -0.00019
           D3           0.00198   0.00270  -0.00561  -0.00450  -0.00067
           D4          -0.00207  -0.00232   0.00498   0.00427   0.00063
                          A9        D1        D2        D3        D4
           A9           0.02229
           D1           0.00064   0.00157
           D2          -0.00067  -0.00106   0.00264
           D3          -0.00020  -0.00126   0.00106   0.00264
           D4           0.00055   0.00168  -0.00126  -0.00106   0.00157
     Eigenvalues ---   -0.00015   0.00109   0.00156   0.00815   0.01595
     Eigenvalues ---    0.02022   0.02351   0.02510   0.03001   0.03981
     Eigenvalues ---    0.04140   0.11924   0.11929   0.33095   0.34504
     Eigenvalues ---    0.52875   0.54166   0.541731000.000001000.00000
 Eigenvalue   1 out of range, new value =    0.000152 Eigenvector:
                           1
           R1           0.00304
           R2           0.00000
           R3          -0.00301
           R4           0.00114
           R5          -0.00002
           R6          -0.00116
           R7           0.00001
           A1           0.00054
           A2           0.00126
           A3          -0.00049
           A4           0.00005
           A5          -0.00005
           A6           0.01310
           A7          -0.01310
           A8           0.00466
           A9          -0.00474
           D1           0.70131
           D2          -0.08969
           D3           0.09008
           D4          -0.70114
 Angle between quadratic step and forces=  62.46 degrees.
 Linear search not attempted -- first point.
 Iteration  1 RMS(Cart)=  0.00096637 RMS(Int)=  0.00000081
 Iteration  2 RMS(Cart)=  0.00000076 RMS(Int)=  0.00000027
 Variable       Old X    -DE/DX   Delta X   Delta X   Delta X     New X
                                 (Linear)    (Quad)   (Total)
    R1        2.92968   0.00000   0.00000   0.00001   0.00001   2.92969
    R2        1.82781  -0.00001   0.00000  -0.00001  -0.00001   1.82780
    R3        2.92970   0.00000   0.00000   0.00003   0.00003   2.92973
    R4        1.95588   0.00001   0.00000   0.00002   0.00002   1.95590
    R5        1.82316   0.00000   0.00000   0.00000   0.00000   1.82316
    R6        1.95589   0.00001   0.00000   0.00002   0.00002   1.95591
    R7        1.82316   0.00000   0.00000   0.00000   0.00000   1.82316
    A1        1.91998   0.00000   0.00000   0.00011   0.00011   1.92009
    A2        2.44322   0.00000   0.00000  -0.00023  -0.00023   2.44299
    A3        1.91998   0.00000   0.00000   0.00012   0.00012   1.92010
    A4        1.77257   0.00000   0.00000  -0.00006  -0.00006   1.77251
    A5        1.77258   0.00000   0.00000  -0.00006  -0.00006   1.77251
    A6        3.07824  -0.00001   0.00000  -0.00032  -0.00032   3.07792
    A7        3.07829  -0.00001   0.00000  -0.00021  -0.00021   3.07808
    A8        3.15438   0.00003   0.00000   0.00125   0.00125   3.15563
    A9        3.15438   0.00003   0.00000   0.00131   0.00131   3.15568
    D1        1.20435   0.00000   0.00000  -0.00204  -0.00204   1.20231
    D2       -1.89965   0.00000   0.00000   0.00039   0.00039  -1.89927
    D3       -1.90018   0.00000   0.00000  -0.00020  -0.00020  -1.90038
    D4        1.20876   0.00000   0.00000   0.00231   0.00231   1.21107
         Item               Value     Threshold  Converged?
 Maximum Force            0.000029     0.000450     YES
 RMS     Force            0.000010     0.000300     YES
 Maximum Displacement     0.002355     0.001800     NO 
 RMS     Displacement     0.000967     0.001200     YES
 Predicted change in Energy=-4.091407D-08
 GradGradGradGradGradGradGradGradGradGradGradGradGradGradGradGradGradGrad

 1\1\GINC-POLARIS-C03\Freq\RMP2-FC\Aug-CC-pVDZ\H5O3(1-)\G060005\02-May-
 2007\0\\#N Geom=AllCheck Guess=Read SCRF=Check GenChk RMP2(FC)/Aug-CC-
 pVDZ Freq\\Title Card Required\\-1,1\O,-0.4171377767,0.3099202396,0.16
 41660546\O,-1.1891534333,-1.3813396188,-1.6305678983\O,1.7507459479,0.
 9643821399,1.4088917699\H,0.8667677908,0.6911524977,0.9450200984\H,-1.
 1579297773,0.8583412668,0.457433401\H,-0.8891385626,-0.6745057328,-0.9
 365819149\H,-1.1379880758,-2.1940889667,-1.1132542572\H,2.2263348869,1
 .3882331744,0.6843517464\\Version=AM64L-G03RevD.01\State=1-A\HF=-227.5
 44038\MP2=-228.2363718\RMSD=2.549e-09\RMSF=1.519e-05\ZeroPoint=0.05703
 74\Thermal=0.0633532\Dipole=0.0205456,-0.0149072,-0.0071778\DipoleDeri
 v=-1.0508343,-0.3793803,-0.3682504,-0.3618472,-0.9987784,-0.2145468,-0
 .4009435,-0.2584904,-1.1526002,-0.7410193,-0.172715,-0.0947058,-0.1980
 152,-0.9102074,-0.4707589,-0.1534534,-0.5350083,-0.836535,-1.2187557,-
 0.1907737,-0.3446174,-0.1199982,-0.6906905,-0.1766519,-0.3708977,-0.22
 72262,-0.5783044,1.226132,0.3671591,0.5400885,0.2966503,0.2592361,0.15
 09076,0.5215555,0.1802412,0.3916791,0.0170784,0.1113187,0.043287,0.113
 5237,0.1150409,-0.0824096,0.039082,-0.0882326,0.1811238,0.2654113,0.26
 24913,0.2281774,0.31289,0.8541887,0.6570909,0.2843513,0.6785353,0.7574
 625,0.2711991,0.0267703,-0.0297857,0.0047119,0.1361352,0.0723926,-0.01
 44783,0.1493607,0.1478636,0.2307886,-0.0248703,0.0258064,-0.0479153,0.
 2350754,0.063976,0.0947842,0.1008203,0.0893107\Polar=40.487207,4.06530
 19,39.1723442,4.2044834,3.995807,38.951637\PG=C01 [X(H5O3)]\NImag=1\\0
 .35741875,-0.21137708,0.20322355,-0.09560178,0.11787822,0.08977422,0.0
 0710179,-0.01092223,-0.01081835,0.04682722,-0.01402871,-0.02247702,-0.
 03194049,0.03810792,0.54671882,-0.01241186,-0.03019812,-0.02147887,0.0
 8492417,-0.09935526,0.34228485,-0.04079125,-0.01558035,-0.02732510,-0.
 00095898,-0.00643483,-0.00610565,0.38278644,-0.01329944,0.00681203,-0.
 00595963,-0.00054080,-0.00087772,-0.00075352,0.18674485,0.14273482,-0.
 02418217,-0.00561134,-0.00287736,-0.00065143,-0.00248108,-0.00255961,-
 0.06787595,-0.14337294,0.41029886,0.01180729,0.01243867,0.02270337,0.0
 0145161,0.00908837,0.00830332,-0.19072170,-0.05785273,-0.06015696,0.19
 351620,0.00385953,-0.01721047,-0.00146217,0.00026706,0.00095154,0.0004
 5919,-0.04762848,-0.04526358,-0.00899364,0.05311186,0.06665237,0.00982
 506,-0.00002013,-0.00959732,0.00045438,0.00307443,0.00341004,-0.104199
 16,-0.02791147,-0.09675431,0.05212393,0.01260549,0.09794274,-0.3136327
 7,0.22254064,0.11484955,-0.00162673,-0.00212941,-0.00261107,-0.0021364
 1,-0.00358106,-0.00386725,-0.00069887,0.00777292,0.00742292,0.31546943
 ,0.22248319,-0.17243408,-0.09515227,-0.00368920,-0.00123654,-0.0023966
 0,-0.00201696,-0.00110116,-0.00197843,0.00028473,0.00118782,0.00191375
 ,-0.22535202,0.17358777,0.11494507,-0.09504341,-0.05577733,-0.00348236
 ,-0.00238231,-0.00275987,-0.00300521,-0.00201050,-0.00238658,0.0002619
 6,0.00465337,0.00342030,-0.11715308,0.09481295,0.05543677,-0.02035884,
 0.00231480,0.00073524,-0.04658760,-0.04993564,-0.04635282,0.00081718,0
 .00022198,0.00030252,-0.00135437,-0.00018747,-0.00015056,0.00243690,0.
 00772550,0.00869694,0.06305569,0.01309043,0.00113583,0.02059216,-0.034
 32722,-0.14044470,-0.06676616,0.00892344,0.00146062,0.00317516,-0.0129
 9354,-0.00189293,-0.00385430,0.00041201,-0.00056611,0.00040721,0.03524
 698,0.16497578,0.00951634,0.01363727,0.00422029,-0.05058981,-0.1130309
 5,-0.14571965,0.00838305,0.00086952,0.00353744,-0.01144089,-0.00052083
 ,-0.00475819,0.00119462,0.00266203,0.00203862,0.03702835,0.06906511,0.
 13009339,-0.00108688,-0.00046895,-0.00089571,-0.00627591,0.02519401,-0
 .02600110,-0.00024152,0.00022133,0.00002913,0.00033323,-0.00016464,0.0
 0005481,0.00005404,0.00057331,-0.00027357,0.00213946,-0.01029546,0.006
 25477,0.00507089,-0.00059961,0.00138207,-0.00281419,0.01086694,-0.3825
 0779,0.19912058,0.00014309,0.00005115,0.00018443,-0.00008142,-0.000030
 90,-0.00027883,-0.00006203,0.00025796,-0.00001122,0.00477469,-0.024880
 56,0.02712819,-0.01497278,0.40575441,-0.00079490,-0.00011605,-0.002723
 71,-0.01994999,0.24613086,-0.17312401,0.00012677,0.00003215,0.00007851
 ,-0.00011621,-0.00006999,-0.00017130,0.00008045,-0.00003341,0.00007701
 ,-0.00012913,-0.02265796,0.01052116,0.02084057,-0.22330515,0.16534478,
 -0.00045808,0.00105451,-0.00364723,0.00006860,0.00013829,0.00025502,-0
 .14875376,-0.11191413,0.15640210,-0.01433340,-0.01703078,0.03446861,0.
 00013441,-0.00000856,0.00001024,-0.00014843,-0.00005663,-0.00034643,0.
 00000670,-0.00006888,-0.00005753,0.16348395,-0.00012831,-0.00043191,-0
 .00114163,0.00023753,-0.00012659,-0.00011011,-0.12415076,-0.10381617,0
 .15907784,-0.00399593,-0.00439385,0.01447105,0.00039895,0.00030435,-0.
 00042609,-0.00016084,0.00021206,0.00018966,-0.00008681,-0.00002635,0.0
 0001953,0.12788617,0.10827846,-0.00129576,-0.00052643,-0.00153992,0.00
 011339,-0.00001521,-0.00005288,0.20000125,0.17910638,-0.30933695,-0.01
 167851,-0.00667143,0.00650803,0.00008386,0.00017199,-0.00004892,-0.000
 13054,0.00003877,0.00006695,-0.00000890,-0.00002381,-0.00000244,-0.187
 08480,-0.17208027,0.30440614\\-0.00001670,0.00001139,0.00000715,-0.000
 02001,0.00001352,0.00001331,-0.00002154,0.00001684,0.00000342,0.000028
 26,-0.00002770,-0.00001136,-0.00000806,0.00000602,0.00000317,0.0000349
 4,-0.00001761,-0.00001441,0.00000145,-0.00000061,-0.00000169,0.0000016
 6,-0.00000186,0.00000043\\\@


 DEFINE YOUR TERMS, YOU WILL PERMIT ME AGAIN TO SAY, 
 OR WE SHALL NEVER UNDERSTAND ONE ANOTHER.

                                    -- VOLTAIRE
 Job cpu time:  0 days  0 hours 19 minutes  8.7 seconds.
 File lengths (MBytes):  RWF=    957 Int=      0 D2E=      0 Chk=      7 Scr=      1
 Normal termination of Gaussian 03 at Wed May  2 21:47:11 2007.
