 Entering Gaussian System, Link 0=g03
 Initial command:
 /usr/local/g03-em64t/g03/l1.exe /usr/scratch/Gau-10483.inp -scrdir=/usr/scratch/
 Entering Link 1 = /usr/local/g03-em64t/g03/l1.exe PID=     10484.
  
 Copyright (c) 1988,1990,1992,1993,1995,1998,2003,2004, Gaussian, Inc.
                  All Rights Reserved.
  
 This is the Gaussian(R) 03 program.  It is based on the
 the Gaussian(R) 98 system (copyright 1998, Gaussian, Inc.),
 the Gaussian(R) 94 system (copyright 1995, Gaussian, Inc.),
 the Gaussian 92(TM) system (copyright 1992, Gaussian, Inc.),
 the Gaussian 90(TM) system (copyright 1990, Gaussian, Inc.),
 the Gaussian 88(TM) system (copyright 1988, Gaussian, Inc.),
 the Gaussian 86(TM) system (copyright 1986, Carnegie Mellon
 University), and the Gaussian 82(TM) system (copyright 1983,
 Carnegie Mellon University). Gaussian is a federally registered
 trademark of Gaussian, Inc.
  
 This software contains proprietary and confidential information,
 including trade secrets, belonging to Gaussian, Inc.
  
 This software is provided under written license and may be
 used, copied, transmitted, or stored only in accord with that
 written license.
  
 The following legend is applicable only to US Government
 contracts under FAR:
  
                    RESTRICTED RIGHTS LEGEND
  
 Use, reproduction and disclosure by the US Government is
 subject to restrictions as set forth in subparagraphs (a)
 and (c) of the Commercial Computer Software - Restricted
 Rights clause in FAR 52.227-19.
  
 Gaussian, Inc.
 340 Quinnipiac St., Bldg. 40, Wallingford CT 06492
  
  
 ---------------------------------------------------------------
 Warning -- This program may not be used in any manner that
 competes with the business of Gaussian, Inc. or will provide
 assistance to any competitor of Gaussian, Inc.  The licensee
 of this program is prohibited from giving any competitor of
 Gaussian, Inc. access to this program.  By using this program,
 the user acknowledges that Gaussian, Inc. is engaged in the
 business of creating and licensing software in the field of
 computational chemistry and represents and warrants to the
 licensee that it is not a competitor of Gaussian, Inc. and that
 it will not use this program in any manner prohibited above.
 ---------------------------------------------------------------
  

 Cite this work as:
 Gaussian 03, Revision D.01,
 M. J. Frisch, G. W. Trucks, H. B. Schlegel, G. E. Scuseria, 
 M. A. Robb, J. R. Cheeseman, J. A. Montgomery, Jr., T. Vreven, 
 K. N. Kudin, J. C. Burant, J. M. Millam, S. S. Iyengar, J. Tomasi, 
 V. Barone, B. Mennucci, M. Cossi, G. Scalmani, N. Rega, 
 G. A. Petersson, H. Nakatsuji, M. Hada, M. Ehara, K. Toyota, 
 R. Fukuda, J. Hasegawa, M. Ishida, T. Nakajima, Y. Honda, O. Kitao, 
 H. Nakai, M. Klene, X. Li, J. E. Knox, H. P. Hratchian, J. B. Cross, 
 V. Bakken, C. Adamo, J. Jaramillo, R. Gomperts, R. E. Stratmann, 
 O. Yazyev, A. J. Austin, R. Cammi, C. Pomelli, J. W. Ochterski, 
 P. Y. Ayala, K. Morokuma, G. A. Voth, P. Salvador, J. J. Dannenberg, 
 V. G. Zakrzewski, S. Dapprich, A. D. Daniels, M. C. Strain, 
 O. Farkas, D. K. Malick, A. D. Rabuck, K. Raghavachari, 
 J. B. Foresman, J. V. Ortiz, Q. Cui, A. G. Baboul, S. Clifford, 
 J. Cioslowski, B. B. Stefanov, G. Liu, A. Liashenko, P. Piskorz, 
 I. Komaromi, R. L. Martin, D. J. Fox, T. Keith, M. A. Al-Laham, 
 C. Y. Peng, A. Nanayakkara, M. Challacombe, P. M. W. Gill, 
 B. Johnson, W. Chen, M. W. Wong, C. Gonzalez, and J. A. Pople, 
 Gaussian, Inc., Wallingford CT, 2004.
 
 ******************************************
 Gaussian 03:  AM64L-G03RevD.01 13-Oct-2005
                 2-May-2007 
 ******************************************
 %chk=depW1.chk
 %mem=64MW
 %nproc=1
 Will use up to    1 processors via shared memory.
 --------------------------
 # freq opt mp2/aug-cc-pvDZ
 --------------------------
 1/18=20,38=1/1,3;
 2/9=110,17=6,18=5,40=1/2;
 3/5=16,7=10,11=9,16=1,25=1,30=1/1,2,3;
 4//1;
 5/5=2,38=5/2;
 8/6=4,10=1/1;
 9/15=2,16=-3/6;
 10/5=1/2;
 6/7=2,8=2,9=2,10=2/1;
 7/12=2/1,2,3,16;
 1/18=20/3(3);
 2/9=110/2;
 6/7=2,8=2,9=2,10=2/1;
 99//99;
 2/9=110/2;
 3/5=16,7=10,11=9,16=1,25=1,30=1/1,2,3;
 4/5=5,16=3/1;
 5/5=2,38=5/2;
 8/6=4,10=1/1;
 9/15=2,16=-3/6;
 10/5=1/2;
 7/12=2/1,2,3,16;
 1/18=20/3(-8);
 2/9=110/2;
 6/7=2,8=2,9=2,10=2/1;
 99//99;
 -------------------
 Title Card Required
 -------------------
 Symbolic Z-matrix:
 Charge = -1 Multiplicity = 1
 O                     0.        0.        0. 
 H                     0.93895  -0.07128  -0.01452 
 

 GradGradGradGradGradGradGradGradGradGradGradGradGradGradGradGradGradGrad
 Berny optimization.
 Initialization pass.
                           ----------------------------
                           !    Initial Parameters    !
                           ! (Angstroms and Degrees)  !
 --------------------------                            --------------------------
 ! Name  Definition              Value          Derivative Info.                !
 --------------------------------------------------------------------------------
 ! R1    R(1,2)                  0.9418         estimate D2E/DX2                !
 --------------------------------------------------------------------------------
 Trust Radius=3.00D-01 FncErr=1.00D-07 GrdErr=1.00D-07
 Number of steps in this run=  20 maximum allowed number of steps= 100.
 GradGradGradGradGradGradGradGradGradGradGradGradGradGradGradGradGradGrad

                          Input orientation:                          
 ---------------------------------------------------------------------
 Center     Atomic     Atomic              Coordinates (Angstroms)
 Number     Number      Type              X           Y           Z
 ---------------------------------------------------------------------
    1          8             0        0.000000    0.000000    0.000000
    2          1             0        0.938953   -0.071277   -0.014518
 ---------------------------------------------------------------------
 Stoichiometry    HO(1-)
 Framework group  C*V[C*(HO)]
 Deg. of freedom     1
 Full point group                 C*V
 Largest Abelian subgroup         C2V     NOp   4
 Largest concise Abelian subgroup C1      NOp   1
                         Standard orientation:                         
 ---------------------------------------------------------------------
 Center     Atomic     Atomic              Coordinates (Angstroms)
 Number     Number      Type              X           Y           Z
 ---------------------------------------------------------------------
    1          8             0        0.000000    0.000000    0.104641
    2          1             0        0.000000    0.000000   -0.837126
 ---------------------------------------------------------------------
 Rotational constants (GHZ):      0.0000000    601.0113376    601.0113376
 Standard basis: Aug-CC-pVDZ (5D, 7F)
 There are    16 symmetry adapted basis functions of A1  symmetry.
 There are     2 symmetry adapted basis functions of A2  symmetry.
 There are     7 symmetry adapted basis functions of B1  symmetry.
 There are     7 symmetry adapted basis functions of B2  symmetry.
 Integral buffers will be    131072 words long.
 Raffenetti 1 integral format.
 Two-electron integral symmetry is turned on.
    32 basis functions,    54 primitive gaussians,    34 cartesian basis functions
     5 alpha electrons        5 beta electrons
       nuclear repulsion energy         4.4951887697 Hartrees.
 NAtoms=    2 NActive=    2 NUniq=    2 SFac= 7.50D-01 NAtFMM=   80 NAOKFM=F Big=F
 One-electron integrals computed using PRISM.
 NBasis=    32 RedAO= T  NBF=    16     2     7     7
 NBsUse=    32 1.00D-06 NBFU=    16     2     7     7
 Harris functional with IExCor=  205 diagonalized for initial guess.
 ExpMin= 2.97D-02 ExpMax= 1.17D+04 ExpMxC= 4.01D+02 IAcc=3 IRadAn=         5 AccDes= 0.00D+00
 HarFok:  IExCor= 205 AccDes= 0.00D+00 IRadAn=         5 IDoV=1
 ScaDFX=  1.000000  1.000000  1.000000  1.000000
 Initial guess orbital symmetries:
       Occupied  (SG) (SG) (SG) (PI) (PI)
       Virtual   (SG) (SG) (PI) (PI) (SG) (SG) (PI) (PI) (SG) (SG)
                 (DLTA) (DLTA) (PI) (PI) (SG) (PI) (PI) (SG) (PI)
                 (PI) (SG) (SG) (DLTA) (DLTA) (PI) (PI) (SG)
 The electronic state of the initial guess is 1-SG.
 Requested convergence on RMS density matrix=1.00D-08 within 128 cycles.
 Requested convergence on MAX density matrix=1.00D-06.
 Requested convergence on             energy=1.00D-06.
 No special actions if energy rises.
 Keep R1 integrals in memory in canonical form, NReq=     1040347.
 SCF Done:  E(RHF) =  -75.3961536706     A.U. after   11 cycles
             Convg  =    0.1389D-08             -V/T =  2.0008
             S**2   =   0.0000
 ExpMin= 2.97D-02 ExpMax= 1.17D+04 ExpMxC= 4.01D+02 IAcc=3 IRadAn=         5 AccDes= 0.00D+00
 HarFok:  IExCor= 205 AccDes= 0.00D+00 IRadAn=         5 IDoV=1
 ScaDFX=  1.000000  1.000000  1.000000  1.000000
 Range of M.O.s used for correlation:     2    32
 NBasis=    32 NAE=     5 NBE=     5 NFC=     1 NFV=     0
 NROrb=     31 NOA=     4 NOB=     4 NVA=    27 NVB=    27
 Fully direct method using O(ONN) memory.
 JobTyp=1 Pass  1:  I=   2 to   5 NPSUse=  1 ParTrn=F ParDer=F DoDerP=T.
 Spin components of T(2) and E(2):
     alpha-alpha T2 =       0.1109728373D-01 E2=     -0.3226757232D-01
     alpha-beta  T2 =       0.5725458465D-01 E2=     -0.1753588066D+00
     beta-beta   T2 =       0.1109728373D-01 E2=     -0.3226757232D-01
 ANorm=    0.1038965424D+01
 E2 =    -0.2398939512D+00 EUMP2 =    -0.75636047621770D+02
 DoAtom=TT
          Differentiating once with respect to electric field.
                with respect to dipole field.
          Differentiating once with respect to nuclear coordinates.
          Store integrals in memory, NReq=      997770.
          There are   1 degrees of freedom in the 1st order CPHF.
     1 vectors were produced by pass  0.
 AX will form   1 AO Fock derivatives at one time.
     1 vectors were produced by pass  1.
     1 vectors were produced by pass  2.
     1 vectors were produced by pass  3.
     1 vectors were produced by pass  4.
     1 vectors were produced by pass  5.
     1 vectors were produced by pass  6.
     1 vectors were produced by pass  7.
     1 vectors were produced by pass  8.
     1 vectors were produced by pass  9.
 Inv2:  IOpt= 1 Iter= 1 AM= 4.50D-16 Conv= 1.00D-12.
 Inverted reduced A of dimension   10 with in-core refinement.
 End of Minotr Frequency-dependent properties file   721 does not exist.

 **********************************************************************

            Population analysis using the SCF density.

 **********************************************************************

 Orbital symmetries:
       Occupied  (SG) (SG) (SG) (PI) (PI)
       Virtual   (SG) (SG) (PI) (PI) (SG) (SG) (PI) (PI) (SG) (SG)
                 (DLTA) (DLTA) (PI) (PI) (SG) (PI) (PI) (SG) (PI)
                 (PI) (SG) (SG) (DLTA) (DLTA) (PI) (PI) (SG)
 The electronic state is 1-SG.
 Alpha  occ. eigenvalues --  -20.19394  -0.91136  -0.25676  -0.10778  -0.10778
 Alpha virt. eigenvalues --    0.19805   0.39091   0.42943   0.42943   0.47004
 Alpha virt. eigenvalues --    0.58733   0.66244   0.66244   0.93080   1.19089
 Alpha virt. eigenvalues --    1.32336   1.32336   1.45496   1.45496   1.67834
 Alpha virt. eigenvalues --    1.78677   1.78677   2.05226   2.40313   2.40313
 Alpha virt. eigenvalues --    2.95527   3.15234   3.95945   3.95945   4.07042
 Alpha virt. eigenvalues --    4.07042   4.56566
          Condensed to atoms (all electrons):
              1          2
     1  O    8.640869   0.324179
     2  H    0.324179   0.710772
 Mulliken atomic charges:
              1
     1  O   -0.965049
     2  H   -0.034951
 Sum of Mulliken charges=  -1.00000
 Atomic charges with hydrogens summed into heavy atoms:
              1
     1  O   -1.000000
     2  H    0.000000
 Sum of Mulliken charges=  -1.00000
 Electronic spatial extent (au):  <R**2>=    23.4392
 Charge=    -1.0000 electrons
 Dipole moment (field-independent basis, Debye):
    X=     0.0000    Y=     0.0000    Z=    -1.5583  Tot=     1.5583
 Quadrupole moment (field-independent basis, Debye-Ang):
   XX=    -9.9864   YY=    -9.9864   ZZ=    -7.7668
   XY=     0.0000   XZ=     0.0000   YZ=     0.0000
 Traceless Quadrupole moment (field-independent basis, Debye-Ang):
   XX=    -0.7399   YY=    -0.7399   ZZ=     1.4797
   XY=     0.0000   XZ=     0.0000   YZ=     0.0000
 Octapole moment (field-independent basis, Debye-Ang**2):
  XXX=     0.0000  YYY=     0.0000  ZZZ=    -1.3158  XYY=     0.0000
  XXY=     0.0000  XXZ=    -0.3216  XZZ=     0.0000  YZZ=     0.0000
  YYZ=    -0.3216  XYZ=     0.0000
 Hexadecapole moment (field-independent basis, Debye-Ang**3):
 XXXX=   -15.2489 YYYY=   -15.2489 ZZZZ=   -13.0130 XXXY=     0.0000
 XXXZ=     0.0000 YYYX=     0.0000 YYYZ=     0.0000 ZZZX=     0.0000
 ZZZY=     0.0000 XXYY=    -5.0830 XXZZ=    -4.8790 YYZZ=    -4.8790
 XXYZ=     0.0000 YYXZ=     0.0000 ZZXY=     0.0000
 N-N= 4.495188769672D+00 E-N=-1.919654785912D+02  KE= 7.533801981659D+01
 Symmetry A1   KE= 6.747558101229D+01
 Symmetry A2   KE= 2.168089735389D-36
 Symmetry B1   KE= 3.931219402152D+00
 Symmetry B2   KE= 3.931219402152D+00
 ***** Axes restored to original set *****
 -------------------------------------------------------------------
 Center     Atomic                   Forces (Hartrees/Bohr)
 Number     Number              X              Y              Z
 -------------------------------------------------------------------
    1          8          -0.033692969    0.002557672    0.000520957
    2          1           0.033692969   -0.002557672   -0.000520957
 -------------------------------------------------------------------
 Cartesian Forces:  Max     0.033692969 RMS     0.019510931

 GradGradGradGradGradGradGradGradGradGradGradGradGradGradGradGradGradGrad
 Berny optimization.
 Internal  Forces:  Max     0.033793923 RMS     0.033793923
 Search for a local minimum.
 Step number   1 out of a maximum of  20
 All quantities printed in internal units (Hartrees-Bohrs-Radians)
 Second derivative matrix not updated -- first step.
 The second derivative matrix:
                          R1
           R1           0.59588
     Eigenvalues ---    0.59588
 RFO step:  Lambda=-1.91042987D-03.
 Linear search not attempted -- first point.
 Iteration  1 RMS(Cart)=  0.03997399 RMS(Int)=  0.00000000
 Iteration  2 RMS(Cart)=  0.00000000 RMS(Int)=  0.00000000
 Variable       Old X    -DE/DX   Delta X   Delta X   Delta X     New X
                                 (Linear)    (Quad)   (Total)
    R1        1.77968   0.03379   0.00000   0.05653   0.05653   1.83621
         Item               Value     Threshold  Converged?
 Maximum Force            0.033794     0.000450     NO 
 RMS     Force            0.033794     0.000300     NO 
 Maximum Displacement     0.028181     0.001800     NO 
 RMS     Displacement     0.039974     0.001200     NO 
 Predicted change in Energy=-9.582676D-04
 GradGradGradGradGradGradGradGradGradGradGradGradGradGradGradGradGradGrad

                          Input orientation:                          
 ---------------------------------------------------------------------
 Center     Atomic     Atomic              Coordinates (Angstroms)
 Number     Number      Type              X           Y           Z
 ---------------------------------------------------------------------
    1          8             0       -0.014913    0.001132    0.000231
    2          1             0        0.953866   -0.072409   -0.014749
 ---------------------------------------------------------------------
 Stoichiometry    HO(1-)
 Framework group  C*V[C*(HO)]
 Deg. of freedom     1
 Full point group                 C*V
 Largest Abelian subgroup         C2V     NOp   4
 Largest concise Abelian subgroup C1      NOp   1
                         Standard orientation:                         
 ---------------------------------------------------------------------
 Center     Atomic     Atomic              Coordinates (Angstroms)
 Number     Number      Type              X           Y           Z
 ---------------------------------------------------------------------
    1          8             0        0.000000    0.000000    0.107965
    2          1             0        0.000000    0.000000   -0.863717
 ---------------------------------------------------------------------
 Rotational constants (GHZ):      0.0000000    564.5741443    564.5741443
 Standard basis: Aug-CC-pVDZ (5D, 7F)
 There are    16 symmetry adapted basis functions of A1  symmetry.
 There are     2 symmetry adapted basis functions of A2  symmetry.
 There are     7 symmetry adapted basis functions of B1  symmetry.
 There are     7 symmetry adapted basis functions of B2  symmetry.
 Integral buffers will be    131072 words long.
 Raffenetti 1 integral format.
 Two-electron integral symmetry is turned on.
    32 basis functions,    54 primitive gaussians,    34 cartesian basis functions
     5 alpha electrons        5 beta electrons
       nuclear repulsion energy         4.3567946851 Hartrees.
 NAtoms=    2 NActive=    2 NUniq=    2 SFac= 7.50D-01 NAtFMM=   80 NAOKFM=F Big=F
 One-electron integrals computed using PRISM.
 NBasis=    32 RedAO= T  NBF=    16     2     7     7
 NBsUse=    32 1.00D-06 NBFU=    16     2     7     7
 Initial guess read from the read-write file:
 Initial guess orbital symmetries:
       Occupied  (SG) (SG) (SG) (PI) (PI)
       Virtual   (SG) (SG) (PI) (PI) (SG) (SG) (PI) (PI) (SG) (SG)
                 (DLTA) (DLTA) (PI) (PI) (SG) (PI) (PI) (SG) (PI)
                 (PI) (SG) (SG) (DLTA) (DLTA) (PI) (PI) (SG)
 Harris functional with IExCor=  205 diagonalized for initial guess.
 ExpMin= 2.97D-02 ExpMax= 1.17D+04 ExpMxC= 4.01D+02 IAcc=3 IRadAn=         5 AccDes= 0.00D+00
 HarFok:  IExCor= 205 AccDes= 0.00D+00 IRadAn=         5 IDoV=1
 ScaDFX=  1.000000  1.000000  1.000000  1.000000
 Requested convergence on RMS density matrix=1.00D-08 within 128 cycles.
 Requested convergence on MAX density matrix=1.00D-06.
 Requested convergence on             energy=1.00D-06.
 No special actions if energy rises.
 Keep R1 integrals in memory in canonical form, NReq=     1040347.
 SCF Done:  E(RHF) =  -75.3955757605     A.U. after   10 cycles
             Convg  =    0.2990D-08             -V/T =  2.0015
             S**2   =   0.0000
 ExpMin= 2.97D-02 ExpMax= 1.17D+04 ExpMxC= 4.01D+02 IAcc=3 IRadAn=         5 AccDes= 0.00D+00
 HarFok:  IExCor= 205 AccDes= 0.00D+00 IRadAn=         5 IDoV=1
 ScaDFX=  1.000000  1.000000  1.000000  1.000000
 Range of M.O.s used for correlation:     2    32
 NBasis=    32 NAE=     5 NBE=     5 NFC=     1 NFV=     0
 NROrb=     31 NOA=     4 NOB=     4 NVA=    27 NVB=    27
 Fully direct method using O(ONN) memory.
 JobTyp=1 Pass  1:  I=   2 to   5 NPSUse=  1 ParTrn=F ParDer=F DoDerP=T.
 Spin components of T(2) and E(2):
     alpha-alpha T2 =       0.1129938335D-01 E2=     -0.3245260937D-01
     alpha-beta  T2 =       0.5835988181D-01 E2=     -0.1765345942D+00
     beta-beta   T2 =       0.1129938335D-01 E2=     -0.3245260937D-01
 ANorm=    0.1039691612D+01
 E2 =    -0.2414398130D+00 EUMP2 =    -0.75637015573496D+02
 DoAtom=TT
          Differentiating once with respect to electric field.
                with respect to dipole field.
          Differentiating once with respect to nuclear coordinates.
          Store integrals in memory, NReq=      997770.
          There are   1 degrees of freedom in the 1st order CPHF.
     1 vectors were produced by pass  0.
 AX will form   1 AO Fock derivatives at one time.
     1 vectors were produced by pass  1.
     1 vectors were produced by pass  2.
     1 vectors were produced by pass  3.
     1 vectors were produced by pass  4.
     1 vectors were produced by pass  5.
     1 vectors were produced by pass  6.
     1 vectors were produced by pass  7.
     1 vectors were produced by pass  8.
     1 vectors were produced by pass  9.
 Inv2:  IOpt= 1 Iter= 1 AM= 2.98D-16 Conv= 1.00D-12.
 Inverted reduced A of dimension   10 with in-core refinement.
 End of Minotr Frequency-dependent properties file   721 does not exist.
 ***** Axes restored to original set *****
 -------------------------------------------------------------------
 Center     Atomic                   Forces (Hartrees/Bohr)
 Number     Number              X              Y              Z
 -------------------------------------------------------------------
    1          8          -0.001543640    0.000117179    0.000023868
    2          1           0.001543640   -0.000117179   -0.000023868
 -------------------------------------------------------------------
 Cartesian Forces:  Max     0.001543640 RMS     0.000893891

 GradGradGradGradGradGradGradGradGradGradGradGradGradGradGradGradGradGrad
 Berny optimization.
 Internal  Forces:  Max     0.001548265 RMS     0.001548265
 Search for a local minimum.
 Step number   2 out of a maximum of  20
 All quantities printed in internal units (Hartrees-Bohrs-Radians)
 Update second derivatives using D2CorX and points  1  2
 Trust test= 1.01D+00 RLast= 5.65D-02 DXMaxT set to 3.00D-01
 The second derivative matrix:
                          R1
           R1           0.57040
     Eigenvalues ---    0.57040
 RFO step:  Lambda= 0.00000000D+00.
 Quartic linear search produced a step of  0.05368.
 Iteration  1 RMS(Cart)=  0.00214589 RMS(Int)=  0.00000000
 Iteration  2 RMS(Cart)=  0.00000000 RMS(Int)=  0.00000000
 Variable       Old X    -DE/DX   Delta X   Delta X   Delta X     New X
                                 (Linear)    (Quad)   (Total)
    R1        1.83621   0.00155   0.00303   0.00000   0.00303   1.83925
         Item               Value     Threshold  Converged?
 Maximum Force            0.001548     0.000450     NO 
 RMS     Force            0.001548     0.000300     NO 
 Maximum Displacement     0.001513     0.001800     YES
 RMS     Displacement     0.002146     0.001200     NO 
 Predicted change in Energy=-2.071994D-06
 GradGradGradGradGradGradGradGradGradGradGradGradGradGradGradGradGradGrad

                          Input orientation:                          
 ---------------------------------------------------------------------
 Center     Atomic     Atomic              Coordinates (Angstroms)
 Number     Number      Type              X           Y           Z
 ---------------------------------------------------------------------
    1          8             0       -0.015714    0.001193    0.000243
    2          1             0        0.954667   -0.072470   -0.014761
 ---------------------------------------------------------------------
 Stoichiometry    HO(1-)
 Framework group  C*V[C*(HO)]
 Deg. of freedom     1
 Full point group                 C*V
 Largest Abelian subgroup         C2V     NOp   4
 Largest concise Abelian subgroup C1      NOp   1
                         Standard orientation:                         
 ---------------------------------------------------------------------
 Center     Atomic     Atomic              Coordinates (Angstroms)
 Number     Number      Type              X           Y           Z
 ---------------------------------------------------------------------
    1          8             0        0.000000    0.000000    0.108143
    2          1             0        0.000000    0.000000   -0.865145
 ---------------------------------------------------------------------
 Rotational constants (GHZ):      0.0000000    562.7125953    562.7125953
 Standard basis: Aug-CC-pVDZ (5D, 7F)
 There are    16 symmetry adapted basis functions of A1  symmetry.
 There are     2 symmetry adapted basis functions of A2  symmetry.
 There are     7 symmetry adapted basis functions of B1  symmetry.
 There are     7 symmetry adapted basis functions of B2  symmetry.
 Integral buffers will be    131072 words long.
 Raffenetti 1 integral format.
 Two-electron integral symmetry is turned on.
    32 basis functions,    54 primitive gaussians,    34 cartesian basis functions
     5 alpha electrons        5 beta electrons
       nuclear repulsion energy         4.3496060073 Hartrees.
 NAtoms=    2 NActive=    2 NUniq=    2 SFac= 7.50D-01 NAtFMM=   80 NAOKFM=F Big=F
 One-electron integrals computed using PRISM.
 NBasis=    32 RedAO= T  NBF=    16     2     7     7
 NBsUse=    32 1.00D-06 NBFU=    16     2     7     7
 Initial guess read from the read-write file:
 Initial guess orbital symmetries:
       Occupied  (SG) (SG) (SG) (PI) (PI)
       Virtual   (SG) (SG) (PI) (PI) (SG) (SG) (PI) (PI) (SG) (SG)
                 (DLTA) (DLTA) (PI) (PI) (SG) (PI) (PI) (SG) (PI)
                 (PI) (SG) (SG) (DLTA) (DLTA) (PI) (PI) (SG)
 Requested convergence on RMS density matrix=1.00D-08 within 128 cycles.
 Requested convergence on MAX density matrix=1.00D-06.
 Requested convergence on             energy=1.00D-06.
 No special actions if energy rises.
 Keep R1 integrals in memory in canonical form, NReq=     1040347.
 SCF Done:  E(RHF) =  -75.3954968042     A.U. after    8 cycles
             Convg  =    0.6146D-08             -V/T =  2.0016
             S**2   =   0.0000
 ExpMin= 2.97D-02 ExpMax= 1.17D+04 ExpMxC= 4.01D+02 IAcc=3 IRadAn=         5 AccDes= 0.00D+00
 HarFok:  IExCor= 205 AccDes= 0.00D+00 IRadAn=         5 IDoV=1
 ScaDFX=  1.000000  1.000000  1.000000  1.000000
 Range of M.O.s used for correlation:     2    32
 NBasis=    32 NAE=     5 NBE=     5 NFC=     1 NFV=     0
 NROrb=     31 NOA=     4 NOB=     4 NVA=    27 NVB=    27
 Fully direct method using O(ONN) memory.
 JobTyp=1 Pass  1:  I=   2 to   5 NPSUse=  1 ParTrn=F ParDer=F DoDerP=T.
 Spin components of T(2) and E(2):
     alpha-alpha T2 =       0.1131012200D-01 E2=     -0.3246207274D-01
     alpha-beta  T2 =       0.5841992607D-01 E2=     -0.1765969641D+00
     beta-beta   T2 =       0.1131012200D-01 E2=     -0.3246207274D-01
 ANorm=    0.1039730816D+01
 E2 =    -0.2415211096D+00 EUMP2 =    -0.75637017913796D+02
 DoAtom=TT
          Differentiating once with respect to electric field.
                with respect to dipole field.
          Differentiating once with respect to nuclear coordinates.
          Store integrals in memory, NReq=      997770.
          There are   1 degrees of freedom in the 1st order CPHF.
     1 vectors were produced by pass  0.
 AX will form   1 AO Fock derivatives at one time.
     1 vectors were produced by pass  1.
     1 vectors were produced by pass  2.
     1 vectors were produced by pass  3.
     1 vectors were produced by pass  4.
     1 vectors were produced by pass  5.
     1 vectors were produced by pass  6.
     1 vectors were produced by pass  7.
     1 vectors were produced by pass  8.
     1 vectors were produced by pass  9.
 Inv2:  IOpt= 1 Iter= 1 AM= 4.43D-16 Conv= 1.00D-12.
 Inverted reduced A of dimension   10 with in-core refinement.
 End of Minotr Frequency-dependent properties file   721 does not exist.
 ***** Axes restored to original set *****
 -------------------------------------------------------------------
 Center     Atomic                   Forces (Hartrees/Bohr)
 Number     Number              X              Y              Z
 -------------------------------------------------------------------
    1          8           0.000002969   -0.000000225   -0.000000046
    2          1          -0.000002969    0.000000225    0.000000046
 -------------------------------------------------------------------
 Cartesian Forces:  Max     0.000002969 RMS     0.000001719

 GradGradGradGradGradGradGradGradGradGradGradGradGradGradGradGradGradGrad
 Berny optimization.
 Internal  Forces:  Max     0.000002978 RMS     0.000002978
 Search for a local minimum.
 Step number   3 out of a maximum of  20
 All quantities printed in internal units (Hartrees-Bohrs-Radians)
 Update second derivatives using D2CorX and points  2  3
 Trust test= 1.13D+00 RLast= 3.03D-03 DXMaxT set to 3.00D-01
 The second derivative matrix:
                          R1
           R1           0.51116
     Eigenvalues ---    0.51116
 RFO step:  Lambda= 0.00000000D+00.
 Quartic linear search produced a step of -0.00193.
 Iteration  1 RMS(Cart)=  0.00000414 RMS(Int)=  0.00000000
 Iteration  2 RMS(Cart)=  0.00000000 RMS(Int)=  0.00000000
 Variable       Old X    -DE/DX   Delta X   Delta X   Delta X     New X
                                 (Linear)    (Quad)   (Total)
    R1        1.83925   0.00000  -0.00001   0.00000  -0.00001   1.83924
         Item               Value     Threshold  Converged?
 Maximum Force            0.000003     0.000450     YES
 RMS     Force            0.000003     0.000300     YES
 Maximum Displacement     0.000003     0.001800     YES
 RMS     Displacement     0.000004     0.001200     YES
 Predicted change in Energy=-8.673897D-12
 Optimization completed.
    -- Stationary point found.
                           ----------------------------
                           !   Optimized Parameters   !
                           ! (Angstroms and Degrees)  !
 --------------------------                            --------------------------
 ! Name  Definition              Value          Derivative Info.                !
 --------------------------------------------------------------------------------
 ! R1    R(1,2)                  0.9733         -DE/DX =    0.0                 !
 --------------------------------------------------------------------------------
 GradGradGradGradGradGradGradGradGradGradGradGradGradGradGradGradGradGrad

                          Input orientation:                          
 ---------------------------------------------------------------------
 Center     Atomic     Atomic              Coordinates (Angstroms)
 Number     Number      Type              X           Y           Z
 ---------------------------------------------------------------------
    1          8             0       -0.015714    0.001193    0.000243
    2          1             0        0.954667   -0.072470   -0.014761
 ---------------------------------------------------------------------
 Stoichiometry    HO(1-)
 Framework group  C*V[C*(HO)]
 Deg. of freedom     1
 Full point group                 C*V
 Largest Abelian subgroup         C2V     NOp   4
 Largest concise Abelian subgroup C1      NOp   1
                         Standard orientation:                         
 ---------------------------------------------------------------------
 Center     Atomic     Atomic              Coordinates (Angstroms)
 Number     Number      Type              X           Y           Z
 ---------------------------------------------------------------------
    1          8             0        0.000000    0.000000    0.108143
    2          1             0        0.000000    0.000000   -0.865145
 ---------------------------------------------------------------------
 Rotational constants (GHZ):      0.0000000    562.7125953    562.7125953

 **********************************************************************

            Population analysis using the SCF density.

 **********************************************************************

 Orbital symmetries:
       Occupied  (SG) (SG) (SG) (PI) (PI)
       Virtual   (SG) (SG) (PI) (PI) (SG) (SG) (PI) (PI) (SG) (SG)
                 (DLTA) (DLTA) (PI) (PI) (SG) (PI) (PI) (SG) (PI)
                 (PI) (SG) (SG) (DLTA) (DLTA) (PI) (PI) (SG)
 The electronic state is 1-SG.
 Alpha  occ. eigenvalues --  -20.19907  -0.90294  -0.25006  -0.10844  -0.10844
 Alpha virt. eigenvalues --    0.19817   0.39251   0.43043   0.43043   0.46865
 Alpha virt. eigenvalues --    0.58106   0.65746   0.65746   0.92511   1.17381
 Alpha virt. eigenvalues --    1.32346   1.32346   1.45398   1.45398   1.67361
 Alpha virt. eigenvalues --    1.77963   1.77963   2.03722   2.38135   2.38135
 Alpha virt. eigenvalues --    2.88919   3.14278   3.95883   3.95883   4.06286
 Alpha virt. eigenvalues --    4.06286   4.51095
          Condensed to atoms (all electrons):
              1          2
     1  O    8.680055   0.311310
     2  H    0.311310   0.697326
 Mulliken atomic charges:
              1
     1  O   -0.991365
     2  H   -0.008635
 Sum of Mulliken charges=  -1.00000
 Atomic charges with hydrogens summed into heavy atoms:
              1
     1  O   -1.000000
     2  H    0.000000
 Sum of Mulliken charges=  -1.00000
 Electronic spatial extent (au):  <R**2>=    23.7032
 Charge=    -1.0000 electrons
 Dipole moment (field-independent basis, Debye):
    X=     0.0000    Y=     0.0000    Z=    -1.5258  Tot=     1.5258
 Quadrupole moment (field-independent basis, Debye-Ang):
   XX=   -10.0174   YY=   -10.0174   ZZ=    -7.8023
   XY=     0.0000   XZ=     0.0000   YZ=     0.0000
 Traceless Quadrupole moment (field-independent basis, Debye-Ang):
   XX=    -0.7384   YY=    -0.7384   ZZ=     1.4767
   XY=     0.0000   XZ=     0.0000   YZ=     0.0000
 Octapole moment (field-independent basis, Debye-Ang**2):
  XXX=     0.0000  YYY=     0.0000  ZZZ=    -1.1983  XYY=     0.0000
  XXY=     0.0000  XXZ=    -0.2780  XZZ=     0.0000  YZZ=     0.0000
  YYZ=    -0.2780  XYZ=     0.0000
 Hexadecapole moment (field-independent basis, Debye-Ang**3):
 XXXX=   -15.2693 YYYY=   -15.2693 ZZZZ=   -13.5385 XXXY=     0.0000
 XXXZ=     0.0000 YYYX=     0.0000 YYYZ=     0.0000 ZZZX=     0.0000
 ZZZY=     0.0000 XXYY=    -5.0898 XXZZ=    -4.9834 YYZZ=    -4.9834
 XXYZ=     0.0000 YYXZ=     0.0000 ZZXY=     0.0000
 N-N= 4.349606007324D+00 E-N=-1.916298546555D+02  KE= 7.527753492174D+01
 Symmetry A1   KE= 6.739597023828D+01
 Symmetry A2   KE= 4.497665101536D-36
 Symmetry B1   KE= 3.940782341726D+00
 Symmetry B2   KE= 3.940782341726D+00
 1\1\GINC-POLARIS\FOpt\RMP2-FC\Aug-CC-pVDZ\H1O1(1-)\G060005\02-May-2007
 \0\\# freq opt mp2/aug-cc-pvDZ\\Title Card Required\\-1,1\O,-0.0157135
 349,0.0011928325,0.0002429611\H,0.9546665349,-0.0724698325,-0.01476096
 11\\Version=AM64L-G03RevD.01\State=1-SG\HF=-75.3954968\MP2=-75.6370179
 \RMSD=6.146e-09\RMSF=1.719e-06\Thermal=0.\Dipole=0.5494331,-0.0417081,
 -0.0084953\PG=C*V [C*(H1O1)]\\@


 FRICTION IS A DRAG,
 AND ENTROPY AIN'T WHAT IT USED TO BE.
 Job cpu time:  0 days  0 hours  0 minutes 41.5 seconds.
 File lengths (MBytes):  RWF=     13 Int=      0 D2E=      0 Chk=      6 Scr=      1
 Normal termination of Gaussian 03 at Wed May  2 17:42:01 2007.
 Link1:  Proceeding to internal job step number  2.
 ----------------------------------------------------------------------
 #N Geom=AllCheck Guess=Read SCRF=Check GenChk RMP2(FC)/Aug-CC-pVDZ Fre
 q
 ----------------------------------------------------------------------
 1/10=4,29=7,30=1,38=1,40=1,46=1/1,3;
 2/40=1/2;
 3/5=16,7=10,11=1,16=1,25=1,30=1,70=2,71=2/1,2,3;
 4/5=1,7=1/1;
 5/5=2,38=6/2;
 8/6=3,8=1,10=1,19=11,30=-1/1;
 9/15=3,16=-3/6;
 11/6=1,8=1,15=11,17=12,24=-1,27=1,28=-2,29=300,32=6,42=3/1,2,10;
 10/6=2,21=1/2;
 8/6=4,8=1,10=1,19=11,30=-1/11,4;
 10/5=1,20=4/2;
 11/12=2,14=11,16=1,17=2,28=-2,42=3/2,10,12;
 6/7=2,8=2,9=2,10=2/1;
 7/8=1,10=1,12=2,25=1,44=2/1,2,3,16;
 1/10=4,30=1,46=1/3;
 99//99;
 -------------------
 Title Card Required
 -------------------
 Redundant internal coordinates taken from checkpoint file:
 depW1.chk
 Charge = -1 Multiplicity = 1
 O,0,-0.0157135349,0.0011928325,0.0002429611
 H,0,0.9546665349,-0.0724698325,-0.0147609611
 Recover connectivity data from disk.

 GradGradGradGradGradGradGradGradGradGradGradGradGradGradGradGradGradGrad
 Berny optimization.
 Initialization pass.
                           ----------------------------
                           !    Initial Parameters    !
                           ! (Angstroms and Degrees)  !
 --------------------------                            --------------------------
 ! Name  Definition              Value          Derivative Info.                !
 --------------------------------------------------------------------------------
 ! R1    R(1,2)                  0.9733         calculate D2E/DX2 analytically  !
 --------------------------------------------------------------------------------
 Trust Radius=3.00D-01 FncErr=1.00D-07 GrdErr=1.00D-07
 Number of steps in this run=   2 maximum allowed number of steps=   2.
 GradGradGradGradGradGradGradGradGradGradGradGradGradGradGradGradGradGrad

                          Input orientation:                          
 ---------------------------------------------------------------------
 Center     Atomic     Atomic              Coordinates (Angstroms)
 Number     Number      Type              X           Y           Z
 ---------------------------------------------------------------------
    1          8             0       -0.015714    0.001193    0.000243
    2          1             0        0.954667   -0.072470   -0.014761
 ---------------------------------------------------------------------
 Stoichiometry    HO(1-)
 Framework group  C*V[C*(HO)]
 Deg. of freedom     1
 Full point group                 C*V
 Largest Abelian subgroup         C2V     NOp   4
 Largest concise Abelian subgroup C1      NOp   1
                         Standard orientation:                         
 ---------------------------------------------------------------------
 Center     Atomic     Atomic              Coordinates (Angstroms)
 Number     Number      Type              X           Y           Z
 ---------------------------------------------------------------------
    1          8             0        0.000000    0.000000    0.108143
    2          1             0        0.000000    0.000000   -0.865145
 ---------------------------------------------------------------------
 Rotational constants (GHZ):      0.0000000    562.7125953    562.7125953
 Standard basis: Aug-CC-pVDZ (5D, 7F)
 There are    16 symmetry adapted basis functions of A1  symmetry.
 There are     2 symmetry adapted basis functions of A2  symmetry.
 There are     7 symmetry adapted basis functions of B1  symmetry.
 There are     7 symmetry adapted basis functions of B2  symmetry.
 Integral buffers will be    131072 words long.
 Raffenetti 1 integral format.
 Two-electron integral symmetry is turned on.
    32 basis functions,    54 primitive gaussians,    34 cartesian basis functions
     5 alpha electrons        5 beta electrons
       nuclear repulsion energy         4.3496060073 Hartrees.
 NAtoms=    2 NActive=    2 NUniq=    2 SFac= 7.50D-01 NAtFMM=   80 NAOKFM=F Big=F
 One-electron integrals computed using PRISM.
 NBasis=    32 RedAO= T  NBF=    16     2     7     7
 NBsUse=    32 1.00D-06 NBFU=    16     2     7     7
 Initial guess read from the checkpoint file:
 depW1.chk
 Initial guess orbital symmetries:
       Occupied  (SG) (SG) (SG) (PI) (PI)
       Virtual   (SG) (SG) (PI) (PI) (SG) (SG) (PI) (PI) (SG) (SG)
                 (DLTA) (DLTA) (PI) (PI) (SG) (PI) (PI) (SG) (PI)
                 (PI) (SG) (SG) (DLTA) (DLTA) (PI) (PI) (SG)
 Requested convergence on RMS density matrix=1.00D-08 within 128 cycles.
 Requested convergence on MAX density matrix=1.00D-06.
 Requested convergence on             energy=1.00D-06.
 No special actions if energy rises.
 Keep R1 integrals in memory in canonical form, NReq=     1040347.
 SCF Done:  E(RHF) =  -75.3954968042     A.U. after    1 cycles
             Convg  =    0.6584D-09             -V/T =  2.0016
             S**2   =   0.0000
 ExpMin= 2.97D-02 ExpMax= 1.17D+04 ExpMxC= 4.01D+02 IAcc=3 IRadAn=         5 AccDes= 0.00D+00
 HarFok:  IExCor= 205 AccDes= 0.00D+00 IRadAn=         5 IDoV=1
 ScaDFX=  1.000000  1.000000  1.000000  1.000000
 Range of M.O.s used for correlation:     2    32
 NBasis=    32 NAE=     5 NBE=     5 NFC=     1 NFV=     0
 NROrb=     31 NOA=     4 NOB=     4 NVA=    27 NVB=    27
 Disk-based method using ON**2 memory for  4 occupieds at a time.
 Permanent disk used for amplitudes=       21735 words.
 Estimated scratch disk usage=      939520 words.
 Actual    scratch disk usage=      939520 words.
 JobTyp=1 Pass  1:  I=   2 to   5 NPSUse=  1 ParTrn=F ParDer=F DoDerP=T.
 (rs|ai) integrals will be sorted in core.
 Spin components of T(2) and E(2):
     alpha-alpha T2 =       0.1131012201D-01 E2=     -0.3246207275D-01
     alpha-beta  T2 =       0.5841992609D-01 E2=     -0.1765969642D+00
     beta-beta   T2 =       0.1131012201D-01 E2=     -0.3246207275D-01
 ANorm=    0.1039730816D+01
 E2 =    -0.2415211097D+00 EUMP2 =    -0.75637017913863D+02
 G2DrvN: will do    3 centers at a time, making    1 passes doing MaxLOS=2.
 FoFDir/FoFCou used for L=0 through L=2.
 DoAtom=TT
          Differentiating once with respect to electric field.
                with respect to dipole field.
          Differentiating once with respect to nuclear coordinates.
          Store integrals in memory, NReq=      997770.
          There are   9 degrees of freedom in the 1st order CPHF.
     6 vectors were produced by pass  0.
 AX will form   6 AO Fock derivatives at one time.
     6 vectors were produced by pass  1.
     6 vectors were produced by pass  2.
     6 vectors were produced by pass  3.
     6 vectors were produced by pass  4.
     6 vectors were produced by pass  5.
     6 vectors were produced by pass  6.
     3 vectors were produced by pass  7.
     2 vectors were produced by pass  8.
 Inv2:  IOpt= 1 Iter= 1 AM= 6.99D-16 Conv= 1.00D-12.
 Inverted reduced A of dimension   47 with in-core refinement.
 End of Minotr Frequency-dependent properties file   721 does not exist.
 MDV=    67108864.
 Form MO integral derivatives with frozen-active canonical formalism.
 Discarding MO integrals.
             Reordered first order wavefunction length =        36450
 In DefCFB: NBatch=  1, ICI=  5, ICA= 27, LFMax= 27
             Large arrays: LIAPS=      587520, LIARS=      803250 words.
 Spin components of T(2) and E(2):
     alpha-alpha T2 =       0.1131012201D-01 E2=     -0.3246207275D-01
     alpha-beta  T2 =       0.5841992609D-01 E2=     -0.1765969642D+00
     beta-beta   T2 =       0.1131012201D-01 E2=     -0.3246207275D-01
 ANorm=    0.1470401421D+01
 E2=       -0.2415211097D+00 EUMP2=       -0.75637017913863D+02
 DoAtom=TT
          Differentiating once with respect to electric field.
                with respect to dipole field.
          Differentiating once with respect to nuclear coordinates.
          There are   1 degrees of freedom in the 1st order CPHF.
 Petite list used in FoFDir.
 MinBra= 0 MaxBra= 2 Meth= 1.
 IRaf=       0 NMat=   1 IRICut=       1 DoRegI=T DoRafI=F ISym2E= 1 JSym2E=1.
     1 vectors were produced by pass  0.
     1 vectors were produced by pass  1.
     1 vectors were produced by pass  2.
     1 vectors were produced by pass  3.
     1 vectors were produced by pass  4.
     1 vectors were produced by pass  5.
     1 vectors were produced by pass  6.
     1 vectors were produced by pass  7.
     1 vectors were produced by pass  8.
     1 vectors were produced by pass  9.
 Inv2:  IOpt= 1 Iter= 1 AM= 3.21D-16 Conv= 1.00D-12.
 Inverted reduced A of dimension   10 with in-core refinement.
 End of Minotr Frequency-dependent properties file   721 does not exist.
 Symmetrizing basis deriv contribution to polar:
 IMax=3 JMax=2 DiffMx= 0.00D+00
 G2DrvN: will do    3 centers at a time, making    1 passes doing MaxLOS=2.
 FoFDir/FoFCou used for L=0 through L=2.
 R2 and R3 integrals will be kept in memory, NReq=     1174620.
 DD1Dir will call FoFMem   1 times, MxPair=        30
 NAB=    15 NAA=     0 NBB=     0.
 Discarding MO integrals.

 **********************************************************************

            Population analysis using the SCF density.

 **********************************************************************

 Orbital symmetries:
       Occupied  (SG) (SG) (SG) (PI) (PI)
       Virtual   (SG) (SG) (PI) (PI) (SG) (SG) (PI) (PI) (SG) (SG)
                 (DLTA) (DLTA) (PI) (PI) (SG) (PI) (PI) (SG) (PI)
                 (PI) (SG) (SG) (DLTA) (DLTA) (PI) (PI) (SG)
 The electronic state is 1-SG.
 Alpha  occ. eigenvalues --  -20.19907  -0.90294  -0.25006  -0.10844  -0.10844
 Alpha virt. eigenvalues --    0.19817   0.39251   0.43043   0.43043   0.46865
 Alpha virt. eigenvalues --    0.58106   0.65746   0.65746   0.92511   1.17381
 Alpha virt. eigenvalues --    1.32346   1.32346   1.45398   1.45398   1.67361
 Alpha virt. eigenvalues --    1.77963   1.77963   2.03722   2.38135   2.38135
 Alpha virt. eigenvalues --    2.88919   3.14278   3.95883   3.95883   4.06286
 Alpha virt. eigenvalues --    4.06286   4.51095
          Condensed to atoms (all electrons):
              1          2
     1  O    8.680055   0.311310
     2  H    0.311310   0.697326
 Mulliken atomic charges:
              1
     1  O   -0.991365
     2  H   -0.008635
 Sum of Mulliken charges=  -1.00000
 Atomic charges with hydrogens summed into heavy atoms:
              1
     1  O   -1.000000
     2  H    0.000000
 Sum of Mulliken charges=  -1.00000
 APT atomic charges:
              1
     1  O   -1.025693
     2  H    0.025693
 Sum of APT charges=  -1.00000
 APT Atomic charges with hydrogens summed into heavy atoms:
              1
     1  O   -1.000000
     2  H    0.000000
 Sum of APT charges=  -1.00000
 Electronic spatial extent (au):  <R**2>=    23.7032
 Charge=    -1.0000 electrons
 Dipole moment (field-independent basis, Debye):
    X=     0.0000    Y=     0.0000    Z=    -1.5258  Tot=     1.5258
 Quadrupole moment (field-independent basis, Debye-Ang):
   XX=   -10.0174   YY=   -10.0174   ZZ=    -7.8023
   XY=     0.0000   XZ=     0.0000   YZ=     0.0000
 Traceless Quadrupole moment (field-independent basis, Debye-Ang):
   XX=    -0.7384   YY=    -0.7384   ZZ=     1.4767
   XY=     0.0000   XZ=     0.0000   YZ=     0.0000
 Octapole moment (field-independent basis, Debye-Ang**2):
  XXX=     0.0000  YYY=     0.0000  ZZZ=    -1.1983  XYY=     0.0000
  XXY=     0.0000  XXZ=    -0.2780  XZZ=     0.0000  YZZ=     0.0000
  YYZ=    -0.2780  XYZ=     0.0000
 Hexadecapole moment (field-independent basis, Debye-Ang**3):
 XXXX=   -15.2693 YYYY=   -15.2693 ZZZZ=   -13.5385 XXXY=     0.0000
 XXXZ=     0.0000 YYYX=     0.0000 YYYZ=     0.0000 ZZZX=     0.0000
 ZZZY=     0.0000 XXYY=    -5.0898 XXZZ=    -4.9834 YYZZ=    -4.9834
 XXYZ=     0.0000 YYXZ=     0.0000 ZZXY=     0.0000
 N-N= 4.349606007324D+00 E-N=-1.916298546487D+02  KE= 7.527753491741D+01
 Symmetry A1   KE= 6.739597023423D+01
 Symmetry A2   KE= 3.410255829377D-36
 Symmetry B1   KE= 3.940782341589D+00
 Symmetry B2   KE= 3.940782341589D+00
  Exact polarizability:  23.120   0.000  23.120   0.000   0.000  18.130
 Approx polarizability:  10.037   0.000  10.037   0.000   0.000  12.571
 Full mass-weighted force constant matrix:
 Low frequencies ---    0.0009    0.0019    0.0019    6.7203    6.7203 3764.0842
 Diagonal vibrational polarizability:
        0.0000000       0.0000000       0.1131263
 Harmonic frequencies (cm**-1), IR intensities (KM/Mole), Raman scattering
 activities (A**4/AMU), depolarization ratios for plane and unpolarized
 incident light, reduced masses (AMU), force constants (mDyne/A),
 and normal coordinates:
                     1
                    SG
 Frequencies --  3764.0842
 Red. masses --     1.0671
 Frc consts  --     8.9078
 IR Inten    --    59.5593
 Atom AN      X      Y      Z
   1   8     0.00   0.00   0.06
   2   1     0.00   0.00  -1.00

 -------------------
 - Thermochemistry -
 -------------------
 Temperature   298.150 Kelvin.  Pressure   1.00000 Atm.
 Atom  1 has atomic number  8 and mass  15.99491
 Atom  2 has atomic number  1 and mass   1.00783
 Molecular mass:    17.00274 amu.
 Principal axes and moments of inertia in atomic units:
                           1         2         3
     EIGENVALUES --     0.00000   3.20722   3.20722
           X            0.00000  -0.23227   0.97265
           Y            0.00000   0.97265   0.23227
           Z            1.00000   0.00000   0.00000
 This molecule is a prolate symmetric top.
 Rotational symmetry number  1.
 Rotational temperature (Kelvin)     27.00591
 Rotational constant (GHZ):         562.712595
 Zero-point vibrational energy      22514.2 (Joules/Mol)
                                    5.38103 (Kcal/Mol)
 Vibrational temperatures:   5415.67
          (Kelvin)
 
 Zero-point correction=                           0.008575 (Hartree/Particle)
 Thermal correction to Energy=                    0.010936
 Thermal correction to Enthalpy=                  0.011880
 Thermal correction to Gibbs Free Energy=        -0.007694
 Sum of electronic and zero-point Energies=            -75.628443
 Sum of electronic and thermal Energies=               -75.626082
 Sum of electronic and thermal Enthalpies=             -75.625138
 Sum of electronic and thermal Free Energies=          -75.644712
 
                     E (Thermal)             CV                S
                      KCal/Mol        Cal/Mol-Kelvin    Cal/Mol-Kelvin
 Total                    6.862              4.968             41.196
 Electronic               0.000              0.000              0.000
 Translational            0.889              2.981             34.437
 Rotational               0.592              1.987              6.760
 Vibrational              5.381              0.000              0.000
                       Q            Log10(Q)             Ln(Q)
 Total Bot       0.345854D+04          3.538893          8.148602
 Total V=0       0.304235D+08          7.483209         17.230727
 Vib (Bot)       0.113680D-03         -3.944317         -9.082125
 Vib (V=0)       0.100000D+01          0.000000          0.000000
 Electronic      0.100000D+01          0.000000          0.000000
 Translational   0.275571D+07          6.440234         14.829186
 Rotational      0.110402D+02          1.042976          2.401541
 ***** Axes restored to original set *****
 -------------------------------------------------------------------
 Center     Atomic                   Forces (Hartrees/Bohr)
 Number     Number              X              Y              Z
 -------------------------------------------------------------------
    1          8           0.000002970   -0.000000225   -0.000000046
    2          1          -0.000002970    0.000000225    0.000000046
 -------------------------------------------------------------------
 Cartesian Forces:  Max     0.000002970 RMS     0.000001720

 GradGradGradGradGradGradGradGradGradGradGradGradGradGradGradGradGradGrad
 Berny optimization.
 Internal  Forces:  Max     0.000002979 RMS     0.000002979
 Search for a local minimum.
 Step number   1 out of a maximum of   2
 All quantities printed in internal units (Hartrees-Bohrs-Radians)
 Second derivative matrix not updated -- analytic derivatives used.
 The second derivative matrix:
                          R1
           R1           0.50834
     Eigenvalues ---    0.50834
 Angle between quadratic step and forces=   0.00 degrees.
 Linear search not attempted -- first point.
 Iteration  1 RMS(Cart)=  0.00000414 RMS(Int)=  0.00000000
 Iteration  2 RMS(Cart)=  0.00000000 RMS(Int)=  0.00000000
 Variable       Old X    -DE/DX   Delta X   Delta X   Delta X     New X
                                 (Linear)    (Quad)   (Total)
    R1        1.83925   0.00000   0.00000  -0.00001  -0.00001   1.83924
         Item               Value     Threshold  Converged?
 Maximum Force            0.000003     0.000450     YES
 RMS     Force            0.000003     0.000300     YES
 Maximum Displacement     0.000003     0.001800     YES
 RMS     Displacement     0.000004     0.001200     YES
 Predicted change in Energy=-8.727443D-12
 Optimization completed.
    -- Stationary point found.
                           ----------------------------
                           !   Optimized Parameters   !
                           ! (Angstroms and Degrees)  !
 --------------------------                            --------------------------
 ! Name  Definition              Value          Derivative Info.                !
 --------------------------------------------------------------------------------
 ! R1    R(1,2)                  0.9733         -DE/DX =    0.0                 !
 --------------------------------------------------------------------------------
 GradGradGradGradGradGradGradGradGradGradGradGradGradGradGradGradGradGrad

 1\1\GINC-POLARIS\Freq\RMP2-FC\Aug-CC-pVDZ\H1O1(1-)\G060005\02-May-2007
 \0\\#N Geom=AllCheck Guess=Read SCRF=Check GenChk RMP2(FC)/Aug-CC-pVDZ
  Freq\\Title Card Required\\-1,1\O,-0.0157135349,0.0011928325,0.000242
 9611\H,0.9546665349,-0.0724698325,-0.0147609611\\Version=AM64L-G03RevD
 .01\State=1-SG\HF=-75.3954968\MP2=-75.6370179\RMSD=6.584e-10\RMSF=1.72
 0e-06\ZeroPoint=0.0085752\Thermal=0.0109357\Dipole=0.5494331,-0.041708
 1,-0.0084953\DipoleDeriv=-0.7029691,-0.0368581,-0.0075074,-0.0368581,-
 1.1857133,0.0005699,-0.0075074,0.0005699,-1.1883951,-0.2970309,0.03685
 81,0.0075074,0.0368581,0.1857133,-0.0005699,0.0075074,-0.0005699,0.188
 3951\Polar=18.160033,0.3765273,23.0915563,0.0766927,-0.0058218,23.1189
 531\PG=C*V [C*(H1O1)]\NImag=0\\0.50531199,-0.03835869,0.00291347,-0.00
 781306,0.00059310,0.00012243,-0.50531199,0.03835869,0.00781306,0.50531
 199,0.03835869,-0.00291347,-0.00059310,-0.03835869,0.00291347,0.007813
 06,-0.00059310,-0.00012243,-0.00781306,0.00059310,0.00012243\\-0.00000
 297,0.00000023,0.00000005,0.00000297,-0.00000023,-0.00000005\\\@


 I HAVE NOT FAILED, I HAVE ONLY DISCOVERED 10,000
 WAYS THAT DIDN'T WORK.  -- THOMAS A. EDISON
 Job cpu time:  0 days  0 hours  0 minutes 27.9 seconds.
 File lengths (MBytes):  RWF=     27 Int=      0 D2E=      0 Chk=      6 Scr=      1
 Normal termination of Gaussian 03 at Wed May  2 17:42:30 2007.
