 Entering Gaussian System, Link 0=g03
 Initial command:
 /lustre/lwork/chinh/g03-em64t/g03/l1.exe /lustre/lwork/chinh/tmp/NQC-depW2-4.freq.0.com/Gau-25103.inp -scrdir=/lustre/lwork/chinh/tmp/NQC-depW2-4.freq.0.com/
 Entering Link 1 = /lustre/lwork/chinh/g03-em64t/g03/l1.exe PID=     25104.
  
 Copyright (c) 1988,1990,1992,1993,1995,1998,2003,2004, Gaussian, Inc.
                  All Rights Reserved.
  
 This is the Gaussian(R) 03 program.  It is based on the
 the Gaussian(R) 98 system (copyright 1998, Gaussian, Inc.),
 the Gaussian(R) 94 system (copyright 1995, Gaussian, Inc.),
 the Gaussian 92(TM) system (copyright 1992, Gaussian, Inc.),
 the Gaussian 90(TM) system (copyright 1990, Gaussian, Inc.),
 the Gaussian 88(TM) system (copyright 1988, Gaussian, Inc.),
 the Gaussian 86(TM) system (copyright 1986, Carnegie Mellon
 University), and the Gaussian 82(TM) system (copyright 1983,
 Carnegie Mellon University). Gaussian is a federally registered
 trademark of Gaussian, Inc.
  
 This software contains proprietary and confidential information,
 including trade secrets, belonging to Gaussian, Inc.
  
 This software is provided under written license and may be
 used, copied, transmitted, or stored only in accord with that
 written license.
  
 The following legend is applicable only to US Government
 contracts under FAR:
  
                    RESTRICTED RIGHTS LEGEND
  
 Use, reproduction and disclosure by the US Government is
 subject to restrictions as set forth in subparagraphs (a)
 and (c) of the Commercial Computer Software - Restricted
 Rights clause in FAR 52.227-19.
  
 Gaussian, Inc.
 340 Quinnipiac St., Bldg. 40, Wallingford CT 06492
  
  
 ---------------------------------------------------------------
 Warning -- This program may not be used in any manner that
 competes with the business of Gaussian, Inc. or will provide
 assistance to any competitor of Gaussian, Inc.  The licensee
 of this program is prohibited from giving any competitor of
 Gaussian, Inc. access to this program.  By using this program,
 the user acknowledges that Gaussian, Inc. is engaged in the
 business of creating and licensing software in the field of
 computational chemistry and represents and warrants to the
 licensee that it is not a competitor of Gaussian, Inc. and that
 it will not use this program in any manner prohibited above.
 ---------------------------------------------------------------
  

 Cite this work as:
 Gaussian 03, Revision D.01,
 M. J. Frisch, G. W. Trucks, H. B. Schlegel, G. E. Scuseria, 
 M. A. Robb, J. R. Cheeseman, J. A. Montgomery, Jr., T. Vreven, 
 K. N. Kudin, J. C. Burant, J. M. Millam, S. S. Iyengar, J. Tomasi, 
 V. Barone, B. Mennucci, M. Cossi, G. Scalmani, N. Rega, 
 G. A. Petersson, H. Nakatsuji, M. Hada, M. Ehara, K. Toyota, 
 R. Fukuda, J. Hasegawa, M. Ishida, T. Nakajima, Y. Honda, O. Kitao, 
 H. Nakai, M. Klene, X. Li, J. E. Knox, H. P. Hratchian, J. B. Cross, 
 V. Bakken, C. Adamo, J. Jaramillo, R. Gomperts, R. E. Stratmann, 
 O. Yazyev, A. J. Austin, R. Cammi, C. Pomelli, J. W. Ochterski, 
 P. Y. Ayala, K. Morokuma, G. A. Voth, P. Salvador, J. J. Dannenberg, 
 V. G. Zakrzewski, S. Dapprich, A. D. Daniels, M. C. Strain, 
 O. Farkas, D. K. Malick, A. D. Rabuck, K. Raghavachari, 
 J. B. Foresman, J. V. Ortiz, Q. Cui, A. G. Baboul, S. Clifford, 
 J. Cioslowski, B. B. Stefanov, G. Liu, A. Liashenko, P. Piskorz, 
 I. Komaromi, R. L. Martin, D. J. Fox, T. Keith, M. A. Al-Laham, 
 C. Y. Peng, A. Nanayakkara, M. Challacombe, P. M. W. Gill, 
 B. Johnson, W. Chen, M. W. Wong, C. Gonzalez, and J. A. Pople, 
 Gaussian, Inc., Wallingford CT, 2004.
 
 ******************************************
 Gaussian 03:  AM64L-G03RevD.01 13-Oct-2005
                13-May-2010 
 ******************************************
 %chk=depW2-4.freq.0.chk
 %nproc=4
 Will use up to    4 processors via shared memory.
 %mem=2GB
 -----------------------------------------
 #opt=(maxcycles=200) freq mp2/aug-cc-pvDZ
 -----------------------------------------
 1/6=200,18=20,38=1/1,3;
 2/9=110,17=6,18=5,40=1/2;
 3/5=16,7=10,11=9,16=1,25=1,30=1/1,2,3;
 4//1;
 5/5=2,38=5/2;
 8/6=4,10=1/1;
 9/15=2,16=-3/6;
 10/5=1/2;
 6/7=2,8=2,9=2,10=2/1;
 7/12=2/1,2,3,16;
 1/6=200,18=20/3(3);
 2/9=110/2;
 6/7=2,8=2,9=2,10=2/1;
 99//99;
 2/9=110/2;
 3/5=16,7=10,11=9,16=1,25=1,30=1/1,2,3;
 4/5=5,16=3/1;
 5/5=2,38=5/2;
 8/6=4,10=1/1;
 9/15=2,16=-3/6;
 10/5=1/2;
 7/12=2/1,2,3,16;
 1/6=200,18=20/3(-8);
 2/9=110/2;
 6/7=2,8=2,9=2,10=2/1;
 99//99;
 -----
 Str 5
 -----
 Symbolic Z-matrix:
 Charge = -1 Multiplicity = 1
 O                    -2.18454  -0.86362  -0.29706 
 O                     0.34416   2.32332  -0.29688 
 O                    -0.00012  -0.00025   0.88813 
 O                     1.8407   -1.45949  -0.29698 
 H                     1.13891  -0.94126   0.2215 
 H                    -1.77783  -1.55698  -0.83201 
 H                     0.24527   1.45627   0.22128 
 H                    -0.45967   2.31771  -0.83182 
 H                    -0.00086   0.00034   1.85392 
 H                    -1.38423  -0.51587   0.22121 
 H                     2.23682  -0.75989  -0.83175 
 

 GradGradGradGradGradGradGradGradGradGradGradGradGradGradGradGradGradGrad
 Berny optimization.
 Initialization pass.
                           ----------------------------
                           !    Initial Parameters    !
                           ! (Angstroms and Degrees)  !
 --------------------------                            --------------------------
 ! Name  Definition              Value          Derivative Info.                !
 --------------------------------------------------------------------------------
 ! R1    R(1,6)                  0.9656         estimate D2E/DX2                !
 ! R2    R(1,10)                 1.0149         estimate D2E/DX2                !
 ! R3    R(2,7)                  1.0149         estimate D2E/DX2                !
 ! R4    R(2,8)                  0.9656         estimate D2E/DX2                !
 ! R5    R(3,5)                  1.6209         estimate D2E/DX2                !
 ! R6    R(3,7)                  1.6206         estimate D2E/DX2                !
 ! R7    R(3,9)                  0.9658         estimate D2E/DX2                !
 ! R8    R(3,10)                 1.6206         estimate D2E/DX2                !
 ! R9    R(4,5)                  1.0148         estimate D2E/DX2                !
 ! R10   R(4,11)                 0.9656         estimate D2E/DX2                !
 ! A1    A(6,1,10)             101.3501         estimate D2E/DX2                !
 ! A2    A(7,2,8)              101.3477         estimate D2E/DX2                !
 ! A3    A(5,3,7)              104.249          estimate D2E/DX2                !
 ! A4    A(5,3,9)              114.3409         estimate D2E/DX2                !
 ! A5    A(5,3,10)             104.2533         estimate D2E/DX2                !
 ! A6    A(7,3,9)              114.2712         estimate D2E/DX2                !
 ! A7    A(7,3,10)             104.2371         estimate D2E/DX2                !
 ! A8    A(9,3,10)             114.2712         estimate D2E/DX2                !
 ! A9    A(5,4,11)             101.3411         estimate D2E/DX2                !
 ! A10   A(3,5,4)              172.9933         estimate D2E/DX2                !
 ! A11   A(2,7,3)              173.0489         estimate D2E/DX2                !
 ! A12   A(1,10,3)             173.0444         estimate D2E/DX2                !
 ! D1    D(6,1,10,3)            33.8174         estimate D2E/DX2                !
 ! D2    D(8,2,7,3)             33.7789         estimate D2E/DX2                !
 ! D3    D(7,3,5,4)            -31.9897         estimate D2E/DX2                !
 ! D4    D(9,3,5,4)           -157.4656         estimate D2E/DX2                !
 ! D5    D(10,3,5,4)            77.0553         estimate D2E/DX2                !
 ! D6    D(5,3,7,2)             76.7937         estimate D2E/DX2                !
 ! D7    D(9,3,7,2)           -157.6862         estimate D2E/DX2                !
 ! D8    D(10,3,7,2)           -32.2632         estimate D2E/DX2                !
 ! D9    D(5,3,10,1)           -32.307          estimate D2E/DX2                !
 ! D10   D(7,3,10,1)            76.7467         estimate D2E/DX2                !
 ! D11   D(9,3,10,1)          -157.8303         estimate D2E/DX2                !
 ! D12   D(11,4,5,3)            33.4818         estimate D2E/DX2                !
 --------------------------------------------------------------------------------
 Trust Radius=3.00D-01 FncErr=1.00D-07 GrdErr=1.00D-07
 Number of steps in this run= 100 maximum allowed number of steps= 100.
 GradGradGradGradGradGradGradGradGradGradGradGradGradGradGradGradGradGrad

                          Input orientation:                          
 ---------------------------------------------------------------------
 Center     Atomic     Atomic              Coordinates (Angstroms)
 Number     Number      Type              X           Y           Z
 ---------------------------------------------------------------------
    1          8             0       -2.184545   -0.863616   -0.297064
    2          8             0        0.344164    2.323318   -0.296878
    3          8             0       -0.000115   -0.000248    0.888129
    4          8             0        1.840695   -1.459494   -0.296980
    5          1             0        1.138909   -0.941255    0.221504
    6          1             0       -1.777831   -1.556977   -0.832008
    7          1             0        0.245271    1.456268    0.221275
    8          1             0       -0.459666    2.317705   -0.831821
    9          1             0       -0.000857    0.000339    1.853920
   10          1             0       -1.384229   -0.515871    0.221213
   11          1             0        2.236817   -0.759888   -0.831746
 ---------------------------------------------------------------------
                    Distance matrix (angstroms):
                    1          2          3          4          5
     1  O    0.000000
     2  O    4.068282   0.000000
     3  O    2.630935   2.630918   0.000000
     4  O    4.069106   4.068080   2.631058   0.000000
     5  H    3.364563   3.399673   1.620882   1.014840   0.000000
     6  H    0.965573   4.454876   2.922764   3.659165   3.161704
     7  H    3.399197   1.014908   1.620601   3.363872   2.558653
     8  H    3.658138   0.965577   2.922725   4.454767   3.779650
     9  H    3.184595   3.184526   0.965791   3.185718   2.202373
    10  H    1.014911   3.364038   1.620622   3.399865   2.558745
    11  H    4.454782   3.657100   2.922138   0.965575   1.532198
                    6          7          8          9         10
     6  H    0.000000
     7  H    3.779152   0.000000
     8  H    4.092764   1.532325   0.000000
     9  H    3.577301   2.201326   3.576856   0.000000
    10  H    1.532351   2.558242   3.161147   2.201346   0.000000
    11  H    4.093012   3.160135   4.091772   3.577420   3.778921
                   11
    11  H    0.000000
 Stoichiometry    H7O4(1-)
 Framework group  C1[X(H7O4)]
 Deg. of freedom    27
 Full point group                 C1
 Largest Abelian subgroup         C1      NOp   1
 Largest concise Abelian subgroup C1      NOp   1
                         Standard orientation:                         
 ---------------------------------------------------------------------
 Center     Atomic     Atomic              Coordinates (Angstroms)
 Number     Number      Type              X           Y           Z
 ---------------------------------------------------------------------
    1          8             0       -2.184914   -0.862684   -0.297064
    2          8             0        0.345155    2.323171   -0.296878
    3          8             0       -0.000115   -0.000248    0.888129
    4          8             0        1.840072   -1.460279   -0.296980
    5          1             0        1.138507   -0.941741    0.221504
    6          1             0       -1.778495   -1.556218   -0.832008
    7          1             0        0.245892    1.456163    0.221275
    8          1             0       -0.458677    2.317901   -0.831821
    9          1             0       -0.000857    0.000339    1.853920
   10          1             0       -1.384449   -0.515280    0.221213
   11          1             0        2.236492   -0.760843   -0.831746
 ---------------------------------------------------------------------
 Rotational constants (GHZ):      3.0329797      3.0314526      1.7533596
 Standard basis: Aug-CC-pVDZ (5D, 7F)
 There are   155 symmetry adapted basis functions of A   symmetry.
 Integral buffers will be    131072 words long.
 Raffenetti 1 integral format.
 Two-electron integral symmetry is turned on.
   155 basis functions,   249 primitive gaussians,   163 cartesian basis functions
    20 alpha electrons       20 beta electrons
       nuclear repulsion energy       127.7757411682 Hartrees.
 NAtoms=   11 NActive=   11 NUniq=   11 SFac= 7.50D-01 NAtFMM=   80 NAOKFM=F Big=F
 One-electron integrals computed using PRISM.
 NBasis=   155 RedAO= T  NBF=   155
 NBsUse=   155 1.00D-06 NBFU=   155
 Harris functional with IExCor=  205 diagonalized for initial guess.
 ExpMin= 2.97D-02 ExpMax= 1.17D+04 ExpMxC= 4.01D+02 IAcc=3 IRadAn=         5 AccDes= 0.00D+00
 HarFok:  IExCor= 205 AccDes= 0.00D+00 IRadAn=         5 IDoV=1
 ScaDFX=  1.000000  1.000000  1.000000  1.000000
 Initial guess orbital symmetries:
       Occupied  (A) (A) (A) (A) (A) (A) (A) (A) (A) (A) (A) (A)
                 (A) (A) (A) (A) (A) (A) (A) (A)
       Virtual   (A) (A) (A) (A) (A) (A) (A) (A) (A) (A) (A) (A)
                 (A) (A) (A) (A) (A) (A) (A) (A) (A) (A) (A) (A)
                 (A) (A) (A) (A) (A) (A) (A) (A) (A) (A) (A) (A)
                 (A) (A) (A) (A) (A) (A) (A) (A) (A) (A) (A) (A)
                 (A) (A) (A) (A) (A) (A) (A) (A) (A) (A) (A) (A)
                 (A) (A) (A) (A) (A) (A) (A) (A) (A) (A) (A) (A)
                 (A) (A) (A) (A) (A) (A) (A) (A) (A) (A) (A) (A)
                 (A) (A) (A) (A) (A) (A) (A) (A) (A) (A) (A) (A)
                 (A) (A) (A) (A) (A) (A) (A) (A) (A) (A) (A) (A)
                 (A) (A) (A) (A) (A) (A) (A) (A) (A) (A) (A) (A)
                 (A) (A) (A) (A) (A) (A) (A) (A) (A) (A) (A) (A)
                 (A) (A) (A)
 The electronic state of the initial guess is 1-A.
 Requested convergence on RMS density matrix=1.00D-08 within 128 cycles.
 Requested convergence on MAX density matrix=1.00D-06.
 Requested convergence on             energy=1.00D-06.
 No special actions if energy rises.
 Keep R1 integrals in memory in canonical form, NReq=    92469124.
 SCF Done:  E(RHF) =  -303.611610978     A.U. after   11 cycles
             Convg  =    0.3305D-08             -V/T =  2.0017
             S**2   =   0.0000
 ExpMin= 2.97D-02 ExpMax= 1.17D+04 ExpMxC= 4.01D+02 IAcc=3 IRadAn=         5 AccDes= 0.00D+00
 HarFok:  IExCor= 205 AccDes= 0.00D+00 IRadAn=         5 IDoV=1
 ScaDFX=  1.000000  1.000000  1.000000  1.000000
 Range of M.O.s used for correlation:     5   155
 NBasis=   155 NAE=    20 NBE=    20 NFC=     4 NFV=     0
 NROrb=    151 NOA=    16 NOB=    16 NVA=   135 NVB=   135

 **** Warning!!: The largest alpha MO coefficient is  0.13723587D+02

 Fully direct method using O(ONN) memory.
 JobTyp=1 Pass  1:  I=   5 to  20 NPSUse=  4 ParTrn=T ParDer=T DoDerP=T.
 Spin components of T(2) and E(2):
     alpha-alpha T2 =       0.3505568300D-01 E2=     -0.1206558902D+00
     alpha-beta  T2 =       0.1871429321D+00 E2=     -0.6752079624D+00
     beta-beta   T2 =       0.3505568300D-01 E2=     -0.1206558902D+00
 ANorm=    0.1121273516D+01
 E2 =    -0.9165197428D+00 EUMP2 =    -0.30452813072093D+03
 DoAtom=TTTTTTTTTTT
          Differentiating once with respect to electric field.
                with respect to dipole field.
          Differentiating once with respect to nuclear coordinates.
          Store integrals in memory, NReq=    90152934.
          There are   1 degrees of freedom in the 1st order CPHF.
     1 vectors were produced by pass  0.
 AX will form   1 AO Fock derivatives at one time.
     1 vectors were produced by pass  1.
     1 vectors were produced by pass  2.
     1 vectors were produced by pass  3.
     1 vectors were produced by pass  4.
     1 vectors were produced by pass  5.
     1 vectors were produced by pass  6.
     1 vectors were produced by pass  7.
     1 vectors were produced by pass  8.
     1 vectors were produced by pass  9.
     1 vectors were produced by pass 10.
     1 vectors were produced by pass 11.
 Inv2:  IOpt= 1 Iter= 1 AM= 3.92D-16 Conv= 1.00D-12.
 Inverted reduced A of dimension   12 with in-core refinement.
 End of Minotr Frequency-dependent properties file   721 does not exist.

 **********************************************************************

            Population analysis using the SCF density.

 **********************************************************************

 Orbital symmetries:
       Occupied  (A) (A) (A) (A) (A) (A) (A) (A) (A) (A) (A) (A)
                 (A) (A) (A) (A) (A) (A) (A) (A)
       Virtual   (A) (A) (A) (A) (A) (A) (A) (A) (A) (A) (A) (A)
                 (A) (A) (A) (A) (A) (A) (A) (A) (A) (A) (A) (A)
                 (A) (A) (A) (A) (A) (A) (A) (A) (A) (A) (A) (A)
                 (A) (A) (A) (A) (A) (A) (A) (A) (A) (A) (A) (A)
                 (A) (A) (A) (A) (A) (A) (A) (A) (A) (A) (A) (A)
                 (A) (A) (A) (A) (A) (A) (A) (A) (A) (A) (A) (A)
                 (A) (A) (A) (A) (A) (A) (A) (A) (A) (A) (A) (A)
                 (A) (A) (A) (A) (A) (A) (A) (A) (A) (A) (A) (A)
                 (A) (A) (A) (A) (A) (A) (A) (A) (A) (A) (A) (A)
                 (A) (A) (A) (A) (A) (A) (A) (A) (A) (A) (A) (A)
                 (A) (A) (A) (A) (A) (A) (A) (A) (A) (A) (A) (A)
                 (A) (A) (A)
 The electronic state is 1-A.
 Alpha  occ. eigenvalues --  -20.37341 -20.37340 -20.37339 -20.31129  -1.14802
 Alpha  occ. eigenvalues --   -1.14317  -1.14315  -1.04954  -0.50723  -0.50723
 Alpha  occ. eigenvalues --   -0.50620  -0.42252  -0.40042  -0.40040  -0.35282
 Alpha  occ. eigenvalues --   -0.30859  -0.30858  -0.30791  -0.24338  -0.24338
 Alpha virt. eigenvalues --    0.14792   0.16761   0.16764   0.16898   0.19926
 Alpha virt. eigenvalues --    0.19928   0.22190   0.31222   0.33000   0.33002
 Alpha virt. eigenvalues --    0.35794   0.35885   0.36204   0.36207   0.37536
 Alpha virt. eigenvalues --    0.39941   0.39943   0.40690   0.40694   0.43461
 Alpha virt. eigenvalues --    0.43463   0.43509   0.47622   0.51813   0.51821
 Alpha virt. eigenvalues --    0.53026   0.54845   0.54849   0.56497   0.57747
 Alpha virt. eigenvalues --    0.60228   0.60230   0.68535   0.70211   0.70216
 Alpha virt. eigenvalues --    0.73023   0.73042   0.75677   0.77042   0.78515
 Alpha virt. eigenvalues --    0.78525   0.80245   0.80247   0.81569   0.83608
 Alpha virt. eigenvalues --    0.85879   0.85880   0.94857   0.95264   0.95271
 Alpha virt. eigenvalues --    0.98803   1.13322   1.13327   1.14415   1.16978
 Alpha virt. eigenvalues --    1.20353   1.20375   1.28424   1.29760   1.29764
 Alpha virt. eigenvalues --    1.30576   1.32978   1.35134   1.35143   1.38863
 Alpha virt. eigenvalues --    1.38867   1.39923   1.44369   1.44377   1.52374
 Alpha virt. eigenvalues --    1.52383   1.59866   1.65750   1.65763   1.69795
 Alpha virt. eigenvalues --    1.72013   1.72026   1.74713   1.85259   1.85271
 Alpha virt. eigenvalues --    1.85459   1.94594   1.96781   1.96795   2.15552
 Alpha virt. eigenvalues --    2.15558   2.17636   2.22506   2.22511   2.25239
 Alpha virt. eigenvalues --    2.27979   2.27984   2.31084   2.31095   2.39720
 Alpha virt. eigenvalues --    2.42053   2.60007   2.60037   2.65760   2.72715
 Alpha virt. eigenvalues --    2.72733   2.75628   2.76479   2.76488   2.87048
 Alpha virt. eigenvalues --    2.95972   2.95982   2.98263   3.15544   3.19655
 Alpha virt. eigenvalues --    3.23474   3.23486   3.31985   3.31994   3.33848
 Alpha virt. eigenvalues --    3.87790   3.87792   3.89041   3.91395   3.92299
 Alpha virt. eigenvalues --    3.92304   3.95459   3.96039   3.96047   4.08932
 Alpha virt. eigenvalues --    4.08943   4.12389   4.12404   4.33451   4.34005
 Alpha virt. eigenvalues --    4.34016   4.51781   4.62096   4.62344   4.62351
          Condensed to atoms (all electrons):
              1          2          3          4          5          6
     1  O    8.019446  -0.003852  -0.054224  -0.003850  -0.004937   0.339572
     2  O   -0.003852   8.019487  -0.054241  -0.003858  -0.005102  -0.000070
     3  O   -0.054224  -0.054241   9.058582  -0.054187   0.008257   0.007651
     4  O   -0.003850  -0.003858  -0.054187   8.019280   0.211661   0.000390
     5  H   -0.004937  -0.005102   0.008257   0.211661   0.357264  -0.001335
     6  H    0.339572  -0.000070   0.007651   0.000390  -0.001335   0.587283
     7  H   -0.005108   0.211519   0.008238  -0.004948  -0.000102   0.000617
     8  H    0.000392   0.339562   0.007653  -0.000069   0.000618  -0.000372
     9  H   -0.005796  -0.005792   0.398173  -0.005768  -0.013560  -0.001628
    10  H    0.211512  -0.004943   0.008265  -0.005101  -0.000103  -0.029371
    11  H   -0.000071   0.000393   0.007681   0.339494  -0.029347  -0.000372
              7          8          9         10         11
     1  O   -0.005108   0.000392  -0.005796   0.211512  -0.000071
     2  O    0.211519   0.339562  -0.005792  -0.004943   0.000393
     3  O    0.008238   0.007653   0.398173   0.008265   0.007681
     4  O   -0.004948  -0.000069  -0.005768  -0.005101   0.339494
     5  H   -0.000102   0.000618  -0.013560  -0.000103  -0.029347
     6  H    0.000617  -0.000372  -0.001628  -0.029371  -0.000372
     7  H    0.357221  -0.029366  -0.013576  -0.000102  -0.001334
     8  H   -0.029366   0.587249  -0.001633  -0.001332  -0.000371
     9  H   -0.013576  -0.001633   0.567345  -0.013573  -0.001626
    10  H   -0.000102  -0.001332  -0.013573   0.357190   0.000617
    11  H   -0.001334  -0.000371  -0.001626   0.000617   0.587167
 Mulliken atomic charges:
              1
     1  O   -0.493083
     2  O   -0.493101
     3  O   -1.341847
     4  O   -0.493043
     5  H    0.476685
     6  H    0.097635
     7  H    0.476940
     8  H    0.097669
     9  H    0.097435
    10  H    0.476941
    11  H    0.097769
 Sum of Mulliken charges=  -1.00000
 Atomic charges with hydrogens summed into heavy atoms:
              1
     1  O    0.081493
     2  O    0.081508
     3  O   -1.244413
     4  O    0.081411
     5  H    0.000000
     6  H    0.000000
     7  H    0.000000
     8  H    0.000000
     9  H    0.000000
    10  H    0.000000
    11  H    0.000000
 Sum of Mulliken charges=  -1.00000
 Electronic spatial extent (au):  <R**2>=   692.5735
 Charge=    -1.0000 electrons
 Dipole moment (field-independent basis, Debye):
    X=    -0.0023    Y=     0.0004    Z=    -0.6937  Tot=     0.6937
 Quadrupole moment (field-independent basis, Debye-Ang):
   XX=   -44.8660   YY=   -44.8500   ZZ=   -26.2231
   XY=     0.0035   XZ=    -0.0007   YZ=    -0.0001
 Traceless Quadrupole moment (field-independent basis, Debye-Ang):
   XX=    -6.2196   YY=    -6.2036   ZZ=    12.4233
   XY=     0.0035   XZ=    -0.0007   YZ=    -0.0001
 Octapole moment (field-independent basis, Debye-Ang**2):
  XXX=    24.2001  YYY=   -20.7149  ZZZ=     3.3709  XYY=   -24.2203
  XXY=    20.7232  XXZ=    -1.9089  XZZ=    -0.0065  YZZ=     0.0045
  YYZ=    -1.9153  XYZ=    -0.0073
 Hexadecapole moment (field-independent basis, Debye-Ang**3):
 XXXX=  -471.8977 YYYY=  -471.5372 ZZZZ=   -71.3454 XXXY=     0.0455
 XXXZ=   -17.7138 YYYX=    -0.0021 YYYZ=    -3.2737 ZZZX=    -0.0090
 ZZZY=     0.0067 XXYY=  -157.2368 XXZZ=   -73.2496 YYZZ=   -73.2144
 XXYZ=     3.2544 YYXZ=    17.7356 ZZXY=     0.0059
 N-N= 1.277757411682D+02 E-N=-9.850239390414D+02  KE= 3.030973211668D+02
 ***** Axes restored to original set *****
 -------------------------------------------------------------------
 Center     Atomic                   Forces (Hartrees/Bohr)
 Number     Number              X              Y              Z
 -------------------------------------------------------------------
    1          8           0.000214644   -0.000261221   -0.000050576
    2          8          -0.000334892   -0.000057908   -0.000055491
    3          8          -0.000013046   -0.000005275    0.000129717
    4          8           0.000112715    0.000303381   -0.000052848
    5          1          -0.000127004   -0.000183312   -0.000056013
    6          1          -0.000121320    0.000113558    0.000056036
    7          1           0.000247862   -0.000013064   -0.000057232
    8          1           0.000160929    0.000049283    0.000056723
    9          1           0.000007308   -0.000005969    0.000035767
   10          1          -0.000110794    0.000223348   -0.000062627
   11          1          -0.000036403   -0.000162821    0.000056543
 -------------------------------------------------------------------
 Cartesian Forces:  Max     0.000334892 RMS     0.000139104

 GradGradGradGradGradGradGradGradGradGradGradGradGradGradGradGradGradGrad
 Berny optimization.
 Internal  Forces:  Max     0.000165684 RMS     0.000065635
 Search for a local minimum.
 Step number   1 out of a maximum of 100
 All quantities printed in internal units (Hartrees-Bohrs-Radians)
 Second derivative matrix not updated -- first step.
     Eigenvalues ---    0.00230   0.00230   0.00230   0.00831   0.00831
     Eigenvalues ---    0.00832   0.07541   0.07553   0.08384   0.08703
     Eigenvalues ---    0.08707   0.08708   0.13507   0.13508   0.16000
     Eigenvalues ---    0.16000   0.16000   0.25000   0.25000   0.25000
     Eigenvalues ---    0.45160   0.45160   0.45172   0.54246   0.54291
     Eigenvalues ---    0.54291   0.542921000.000001000.000001000.00000
     Eigenvalues --- 1000.000001000.000001000.000001000.00000
 RFO step:  Lambda=-7.78628815D-07.
 Linear search not attempted -- first point.
 Iteration  1 RMS(Cart)=  0.00134555 RMS(Int)=  0.00000144
 Iteration  2 RMS(Cart)=  0.00000115 RMS(Int)=  0.00000006
 Iteration  3 RMS(Cart)=  0.00000000 RMS(Int)=  0.00000006
 Variable       Old X    -DE/DX   Delta X   Delta X   Delta X     New X
                                 (Linear)    (Quad)   (Total)
    R1        1.82467  -0.00016   0.00000  -0.00030  -0.00030   1.82437
    R2        1.91790  -0.00003   0.00000  -0.00006  -0.00006   1.91785
    R3        1.91790  -0.00002   0.00000  -0.00006  -0.00006   1.91784
    R4        1.82468  -0.00017   0.00000  -0.00031  -0.00031   1.82437
    R5        3.06302   0.00001   0.00000   0.00012   0.00012   3.06315
    R6        3.06249   0.00001   0.00000   0.00017   0.00017   3.06266
    R7        1.82508   0.00004   0.00000   0.00007   0.00007   1.82515
    R8        3.06253   0.00001   0.00000   0.00016   0.00016   3.06270
    R9        1.91777  -0.00002   0.00000  -0.00005  -0.00005   1.91772
   R10        1.82467  -0.00016   0.00000  -0.00030  -0.00030   1.82437
    A1        1.76889   0.00011   0.00000   0.00070   0.00070   1.76960
    A2        1.76885   0.00011   0.00000   0.00071   0.00071   1.76957
    A3        1.81949  -0.00004   0.00000  -0.00043  -0.00043   1.81906
    A4        1.99563   0.00002   0.00000   0.00028   0.00028   1.99591
    A5        1.81956  -0.00003   0.00000  -0.00039  -0.00039   1.81917
    A6        1.99441   0.00003   0.00000   0.00039   0.00039   1.99479
    A7        1.81928  -0.00004   0.00000  -0.00041  -0.00041   1.81887
    A8        1.99441   0.00003   0.00000   0.00039   0.00039   1.99480
    A9        1.76874   0.00011   0.00000   0.00071   0.00071   1.76945
   A10        3.01930  -0.00004   0.00000  -0.00018  -0.00018   3.01912
   A11        3.02027  -0.00006   0.00000  -0.00025  -0.00025   3.02002
   A12        3.02019  -0.00006   0.00000  -0.00023  -0.00023   3.01996
    D1        0.59022  -0.00002   0.00000  -0.00280  -0.00280   0.58742
    D2        0.58955  -0.00002   0.00000  -0.00279  -0.00279   0.58676
    D3       -0.55833   0.00003   0.00000   0.00088   0.00088  -0.55745
    D4       -2.74829   0.00000   0.00000   0.00052   0.00052  -2.74777
    D5        1.34487  -0.00003   0.00000   0.00014   0.00014   1.34501
    D6        1.34030  -0.00003   0.00000   0.00025   0.00025   1.34056
    D7       -2.75214   0.00000   0.00000   0.00054   0.00054  -2.75160
    D8       -0.56310   0.00003   0.00000   0.00098   0.00098  -0.56212
    D9       -0.56386   0.00003   0.00000   0.00104   0.00104  -0.56282
   D10        1.33948  -0.00003   0.00000   0.00029   0.00029   1.33977
   D11       -2.75466   0.00000   0.00000   0.00073   0.00073  -2.75393
   D12        0.58437  -0.00002   0.00000  -0.00259  -0.00259   0.58177
         Item               Value     Threshold  Converged?
 Maximum Force            0.000166     0.000450     YES
 RMS     Force            0.000066     0.000300     YES
 Maximum Displacement     0.002738     0.001800     NO 
 RMS     Displacement     0.001345     0.001200     NO 
 Predicted change in Energy=-3.892817D-07
 GradGradGradGradGradGradGradGradGradGradGradGradGradGradGradGradGradGrad

                          Input orientation:                          
 ---------------------------------------------------------------------
 Center     Atomic     Atomic              Coordinates (Angstroms)
 Number     Number      Type              X           Y           Z
 ---------------------------------------------------------------------
    1          8             0       -2.183991   -0.863808   -0.296947
    2          8             0        0.343688    2.322913   -0.296776
    3          8             0       -0.000126   -0.000254    0.889239
    4          8             0        1.840577   -1.458874   -0.296867
    5          1             0        1.138870   -0.941004    0.222045
    6          1             0       -1.777138   -1.555677   -0.833427
    7          1             0        0.245095    1.456139    0.221838
    8          1             0       -0.458907    2.316415   -0.833270
    9          1             0       -0.000805    0.000282    1.855065
   10          1             0       -1.384051   -0.515949    0.221774
   11          1             0        2.235401   -0.759902   -0.833129
 ---------------------------------------------------------------------
                    Distance matrix (angstroms):
                    1          2          3          4          5
     1  O    0.000000
     2  O    4.067475   0.000000
     3  O    2.630975   2.630959   0.000000
     4  O    4.068323   4.067259   2.631085   0.000000
     5  H    3.364033   3.399212   1.620947   1.014816   0.000000
     6  H    0.965413   4.453017   2.923130   3.658569   3.161478
     7  H    3.398787   1.014879   1.620691   3.363320   2.558345
     8  H    3.657510   0.965415   2.923093   4.452883   3.778539
     9  H    3.184981   3.184920   0.965826   3.186006   2.202642
    10  H    1.014880   3.363497   1.620709   3.399459   2.558476
    11  H    4.453012   3.656501   2.922533   0.965415   1.532505
                    6          7          8          9         10
     6  H    0.000000
     7  H    3.778102   0.000000
     8  H    4.090334   1.532627   0.000000
     9  H    3.578317   2.201685   3.577915   0.000000
    10  H    1.532646   2.557977   3.160901   2.201704   0.000000
    11  H    4.090688   3.159923   4.089379   3.578391   3.777932
                   11
    11  H    0.000000
 Stoichiometry    H7O4(1-)
 Framework group  C1[X(H7O4)]
 Deg. of freedom    27
 Full point group                 C1
 Largest Abelian subgroup         C1      NOp   1
 Largest concise Abelian subgroup C1      NOp   1
                         Standard orientation:                         
 ---------------------------------------------------------------------
 Center     Atomic     Atomic              Coordinates (Angstroms)
 Number     Number      Type              X           Y           Z
 ---------------------------------------------------------------------
    1          8             0       -2.186985   -0.856181   -0.297206
    2          8             0        0.351805    2.321696   -0.297035
    3          8             0       -0.000118   -0.000256    0.888980
    4          8             0        1.835481   -1.465295   -0.297125
    5          1             0        1.135586   -0.944978    0.221786
    6          1             0       -1.782550   -1.549466   -0.833686
    7          1             0        0.250187    1.455272    0.221580
    8          1             0       -0.450808    2.318000   -0.833528
    9          1             0       -0.000795    0.000281    1.854806
   10          1             0       -1.385835   -0.511116    0.221515
   11          1             0        2.232743   -0.767705   -0.833388
 ---------------------------------------------------------------------
 Rotational constants (GHZ):      3.0334162      3.0318274      1.7541246
 Standard basis: Aug-CC-pVDZ (5D, 7F)
 There are   155 symmetry adapted basis functions of A   symmetry.
 Integral buffers will be    131072 words long.
 Raffenetti 1 integral format.
 Two-electron integral symmetry is turned on.
   155 basis functions,   249 primitive gaussians,   163 cartesian basis functions
    20 alpha electrons       20 beta electrons
       nuclear repulsion energy       127.7839633344 Hartrees.
 NAtoms=   11 NActive=   11 NUniq=   11 SFac= 7.50D-01 NAtFMM=   80 NAOKFM=F Big=F
 One-electron integrals computed using PRISM.
 NBasis=   155 RedAO= T  NBF=   155
 NBsUse=   155 1.00D-06 NBFU=   155
 Initial guess read from the read-write file:
 Initial guess orbital symmetries:
       Occupied  (A) (A) (A) (A) (A) (A) (A) (A) (A) (A) (A) (A)
                 (A) (A) (A) (A) (A) (A) (A) (A)
       Virtual   (A) (A) (A) (A) (A) (A) (A) (A) (A) (A) (A) (A)
                 (A) (A) (A) (A) (A) (A) (A) (A) (A) (A) (A) (A)
                 (A) (A) (A) (A) (A) (A) (A) (A) (A) (A) (A) (A)
                 (A) (A) (A) (A) (A) (A) (A) (A) (A) (A) (A) (A)
                 (A) (A) (A) (A) (A) (A) (A) (A) (A) (A) (A) (A)
                 (A) (A) (A) (A) (A) (A) (A) (A) (A) (A) (A) (A)
                 (A) (A) (A) (A) (A) (A) (A) (A) (A) (A) (A) (A)
                 (A) (A) (A) (A) (A) (A) (A) (A) (A) (A) (A) (A)
                 (A) (A) (A) (A) (A) (A) (A) (A) (A) (A) (A) (A)
                 (A) (A) (A) (A) (A) (A) (A) (A) (A) (A) (A) (A)
                 (A) (A) (A) (A) (A) (A) (A) (A) (A) (A) (A) (A)
                 (A) (A) (A)
 Requested convergence on RMS density matrix=1.00D-08 within 128 cycles.
 Requested convergence on MAX density matrix=1.00D-06.
 Requested convergence on             energy=1.00D-06.
 No special actions if energy rises.
 Keep R1 integrals in memory in canonical form, NReq=    92469124.
 SCF Done:  E(RHF) =  -303.611643517     A.U. after    8 cycles
             Convg  =    0.6672D-08             -V/T =  2.0017
             S**2   =   0.0000
 ExpMin= 2.97D-02 ExpMax= 1.17D+04 ExpMxC= 4.01D+02 IAcc=3 IRadAn=         5 AccDes= 0.00D+00
 HarFok:  IExCor= 205 AccDes= 0.00D+00 IRadAn=         5 IDoV=1
 ScaDFX=  1.000000  1.000000  1.000000  1.000000
 Range of M.O.s used for correlation:     5   155
 NBasis=   155 NAE=    20 NBE=    20 NFC=     4 NFV=     0
 NROrb=    151 NOA=    16 NOB=    16 NVA=   135 NVB=   135

 **** Warning!!: The largest alpha MO coefficient is  0.13772752D+02

 Fully direct method using O(ONN) memory.
 JobTyp=1 Pass  1:  I=   5 to  20 NPSUse=  4 ParTrn=T ParDer=T DoDerP=T.
 Spin components of T(2) and E(2):
     alpha-alpha T2 =       0.3505286484D-01 E2=     -0.1206515574D+00
     alpha-beta  T2 =       0.1871265288D+00 E2=     -0.6751846663D+00
     beta-beta   T2 =       0.3505286484D-01 E2=     -0.1206515574D+00
 ANorm=    0.1121263688D+01
 E2 =    -0.9164877811D+00 EUMP2 =    -0.30452813129829D+03
 DoAtom=TTTTTTTTTTT
          Differentiating once with respect to electric field.
                with respect to dipole field.
          Differentiating once with respect to nuclear coordinates.
          Store integrals in memory, NReq=    90152934.
          There are   1 degrees of freedom in the 1st order CPHF.
     1 vectors were produced by pass  0.
 AX will form   1 AO Fock derivatives at one time.
     1 vectors were produced by pass  1.
     1 vectors were produced by pass  2.
     1 vectors were produced by pass  3.
     1 vectors were produced by pass  4.
     1 vectors were produced by pass  5.
     1 vectors were produced by pass  6.
     1 vectors were produced by pass  7.
     1 vectors were produced by pass  8.
     1 vectors were produced by pass  9.
     1 vectors were produced by pass 10.
     1 vectors were produced by pass 11.
 Inv2:  IOpt= 1 Iter= 1 AM= 2.64D-16 Conv= 1.00D-12.
 Inverted reduced A of dimension   12 with in-core refinement.
 End of Minotr Frequency-dependent properties file   721 does not exist.
 ***** Axes restored to original set *****
 -------------------------------------------------------------------
 Center     Atomic                   Forces (Hartrees/Bohr)
 Number     Number              X              Y              Z
 -------------------------------------------------------------------
    1          8           0.000090367   -0.000126149    0.000023560
    2          8          -0.000153384   -0.000017521    0.000020507
    3          8          -0.000012257   -0.000004937    0.000160591
    4          8           0.000058110    0.000127956    0.000021784
    5          1          -0.000105338   -0.000136883   -0.000073571
    6          1          -0.000021247    0.000016585    0.000001807
    7          1           0.000195178   -0.000017795   -0.000075402
    8          1           0.000025295    0.000010314    0.000002046
    9          1           0.000006609   -0.000005549   -0.000004476
   10          1          -0.000080508    0.000181031   -0.000079117
   11          1          -0.000002826   -0.000027054    0.000002271
 -------------------------------------------------------------------
 Cartesian Forces:  Max     0.000195178 RMS     0.000082067

 GradGradGradGradGradGradGradGradGradGradGradGradGradGradGradGradGradGrad
 Berny optimization.
 Internal  Forces:  Max     0.000061436 RMS     0.000028703
 Search for a local minimum.
 Step number   2 out of a maximum of 100
 All quantities printed in internal units (Hartrees-Bohrs-Radians)
 Update second derivatives using D2CorX and points  1  2
 Trust test= 1.48D+00 RLast= 5.42D-03 DXMaxT set to 3.00D-01
     Eigenvalues ---    0.00193   0.00230   0.00230   0.00687   0.00831
     Eigenvalues ---    0.00832   0.05632   0.07539   0.07555   0.08703
     Eigenvalues ---    0.08708   0.08709   0.13494   0.13505   0.16000
     Eigenvalues ---    0.16000   0.16676   0.24143   0.25000   0.25000
     Eigenvalues ---    0.44779   0.45160   0.45169   0.54215   0.54291
     Eigenvalues ---    0.54292   0.603301000.000001000.000001000.00000
     Eigenvalues --- 1000.000001000.000001000.000001000.00000
 RFO step:  Lambda=-6.12029239D-07.
 Quartic linear search produced a step of  0.94703.
 Iteration  1 RMS(Cart)=  0.00146241 RMS(Int)=  0.00001538
 Iteration  2 RMS(Cart)=  0.00000191 RMS(Int)=  0.00000049
 Iteration  3 RMS(Cart)=  0.00000000 RMS(Int)=  0.00000049
 Variable       Old X    -DE/DX   Delta X   Delta X   Delta X     New X
                                 (Linear)    (Quad)   (Total)
    R1        1.82437  -0.00002  -0.00029  -0.00003  -0.00031   1.82405
    R2        1.91785  -0.00003  -0.00005  -0.00012  -0.00017   1.91767
    R3        1.91784  -0.00003  -0.00005  -0.00012  -0.00017   1.91767
    R4        1.82437  -0.00002  -0.00029  -0.00003  -0.00032   1.82405
    R5        3.06315   0.00001   0.00012   0.00012   0.00023   3.06338
    R6        3.06266   0.00001   0.00016   0.00018   0.00034   3.06300
    R7        1.82515   0.00000   0.00006  -0.00003   0.00004   1.82518
    R8        3.06270   0.00001   0.00016   0.00018   0.00033   3.06303
    R9        1.91772  -0.00003  -0.00004  -0.00010  -0.00015   1.91758
   R10        1.82437  -0.00002  -0.00029  -0.00003  -0.00031   1.82406
    A1        1.76960   0.00003   0.00066   0.00021   0.00087   1.77047
    A2        1.76957   0.00003   0.00068   0.00021   0.00089   1.77045
    A3        1.81906  -0.00004  -0.00041  -0.00077  -0.00118   1.81788
    A4        1.99591   0.00002   0.00027   0.00052   0.00079   1.99669
    A5        1.81917  -0.00003  -0.00037  -0.00070  -0.00107   1.81810
    A6        1.99479   0.00003   0.00037   0.00069   0.00105   1.99585
    A7        1.81887  -0.00004  -0.00038  -0.00073  -0.00111   1.81776
    A8        1.99480   0.00003   0.00037   0.00069   0.00106   1.99586
    A9        1.76945   0.00003   0.00068   0.00022   0.00090   1.77035
   A10        3.01912  -0.00004  -0.00017  -0.00031  -0.00048   3.01864
   A11        3.02002  -0.00006  -0.00024  -0.00044  -0.00068   3.01934
   A12        3.01996  -0.00006  -0.00022  -0.00040  -0.00062   3.01934
    D1        0.58742  -0.00001  -0.00265  -0.00206  -0.00471   0.58271
    D2        0.58676  -0.00001  -0.00265  -0.00201  -0.00466   0.58210
    D3       -0.55745   0.00004   0.00083   0.00470   0.00553  -0.55192
    D4       -2.74777   0.00001   0.00050   0.00407   0.00456  -2.74321
    D5        1.34501  -0.00003   0.00013   0.00338   0.00351   1.34852
    D6        1.34056  -0.00002   0.00024   0.00365   0.00389   1.34445
    D7       -2.75160   0.00000   0.00051   0.00418   0.00469  -2.74692
    D8       -0.56212   0.00004   0.00093   0.00495   0.00588  -0.55625
    D9       -0.56282   0.00004   0.00099   0.00503   0.00602  -0.55680
   D10        1.33977  -0.00003   0.00027   0.00368   0.00395   1.34373
   D11       -2.75393   0.00001   0.00069   0.00445   0.00514  -2.74879
   D12        0.58177  -0.00001  -0.00246  -0.00172  -0.00418   0.57759
         Item               Value     Threshold  Converged?
 Maximum Force            0.000061     0.000450     YES
 RMS     Force            0.000029     0.000300     YES
 Maximum Displacement     0.003233     0.001800     NO 
 RMS     Displacement     0.001462     0.001200     NO 
 Predicted change in Energy=-4.769383D-07
 GradGradGradGradGradGradGradGradGradGradGradGradGradGradGradGradGradGrad

                          Input orientation:                          
 ---------------------------------------------------------------------
 Center     Atomic     Atomic              Coordinates (Angstroms)
 Number     Number      Type              X           Y           Z
 ---------------------------------------------------------------------
    1          8             0       -2.182901   -0.863250   -0.297804
    2          8             0        0.343557    2.321640   -0.297673
    3          8             0       -0.000153   -0.000263    0.890931
    4          8             0        1.839541   -1.458115   -0.297700
    5          1             0        1.138115   -0.941029    0.222221
    6          1             0       -1.775974   -1.555132   -0.833913
    7          1             0        0.245561    1.455571    0.222052
    8          1             0       -0.459087    2.315053   -0.833790
    9          1             0       -0.000678    0.000147    1.856776
   10          1             0       -1.383838   -0.515236    0.221985
   11          1             0        2.234469   -0.759106   -0.833539
 ---------------------------------------------------------------------
                    Distance matrix (angstroms):
                    1          2          3          4          5
     1  O    0.000000
     2  O    4.065281   0.000000
     3  O    2.631012   2.630998   0.000000
     4  O    4.066190   4.065036   2.631093   0.000000
     5  H    3.362383   3.398033   1.621070   1.014738   0.000000
     6  H    0.965247   4.450767   2.923396   3.656349   3.159819
     7  H    3.397735   1.014787   1.620872   3.361619   2.557410
     8  H    3.655191   0.965247   2.923349   4.450604   3.777338
     9  H    3.185869   3.185825   0.965845   3.186644   2.203278
    10  H    1.014789   3.361816   1.620885   3.398421   2.557644
    11  H    4.450957   3.654271   2.922871   0.965249   1.532879
                    6          7          8          9         10
     6  H    0.000000
     7  H    3.777036   0.000000
     8  H    4.088095   1.532984   0.000000
     9  H    3.579158   2.202547   3.578837   0.000000
    10  H    1.532995   2.557151   3.159171   2.202564   0.000000
    11  H    4.088682   3.158295   4.087260   3.579126   3.777003
                   11
    11  H    0.000000
 Stoichiometry    H7O4(1-)
 Framework group  C1[X(H7O4)]
 Deg. of freedom    27
 Full point group                 C1
 Largest Abelian subgroup         C1      NOp   1
 Largest concise Abelian subgroup C1      NOp   1
                         Standard orientation:                         
 ---------------------------------------------------------------------
 Center     Atomic     Atomic              Coordinates (Angstroms)
 Number     Number      Type              X           Y           Z
 ---------------------------------------------------------------------
    1          8             0       -2.186783   -0.853306   -0.297902
    2          8             0        0.354157    2.320041   -0.297771
    3          8             0       -0.000127   -0.000272    0.890833
    4          8             0        1.832907   -1.466489   -0.297798
    5          1             0        1.133844   -0.946214    0.222123
    6          1             0       -1.783013   -1.547035   -0.834011
    7          1             0        0.252216    1.454428    0.221954
    8          1             0       -0.448509    2.317110   -0.833888
    9          1             0       -0.000650    0.000140    1.856678
   10          1             0       -1.386143   -0.508937    0.221887
   11          1             0        2.231016   -0.769286   -0.833637
 ---------------------------------------------------------------------
 Rotational constants (GHZ):      3.0347870      3.0330468      1.7559893
 Standard basis: Aug-CC-pVDZ (5D, 7F)
 There are   155 symmetry adapted basis functions of A   symmetry.
 Integral buffers will be    131072 words long.
 Raffenetti 1 integral format.
 Two-electron integral symmetry is turned on.
   155 basis functions,   249 primitive gaussians,   163 cartesian basis functions
    20 alpha electrons       20 beta electrons
       nuclear repulsion energy       127.8048313438 Hartrees.
 NAtoms=   11 NActive=   11 NUniq=   11 SFac= 7.50D-01 NAtFMM=   80 NAOKFM=F Big=F
 One-electron integrals computed using PRISM.
 NBasis=   155 RedAO= T  NBF=   155
 NBsUse=   155 1.00D-06 NBFU=   155
 Initial guess read from the read-write file:
 Initial guess orbital symmetries:
       Occupied  (A) (A) (A) (A) (A) (A) (A) (A) (A) (A) (A) (A)
                 (A) (A) (A) (A) (A) (A) (A) (A)
       Virtual   (A) (A) (A) (A) (A) (A) (A) (A) (A) (A) (A) (A)
                 (A) (A) (A) (A) (A) (A) (A) (A) (A) (A) (A) (A)
                 (A) (A) (A) (A) (A) (A) (A) (A) (A) (A) (A) (A)
                 (A) (A) (A) (A) (A) (A) (A) (A) (A) (A) (A) (A)
                 (A) (A) (A) (A) (A) (A) (A) (A) (A) (A) (A) (A)
                 (A) (A) (A) (A) (A) (A) (A) (A) (A) (A) (A) (A)
                 (A) (A) (A) (A) (A) (A) (A) (A) (A) (A) (A) (A)
                 (A) (A) (A) (A) (A) (A) (A) (A) (A) (A) (A) (A)
                 (A) (A) (A) (A) (A) (A) (A) (A) (A) (A) (A) (A)
                 (A) (A) (A) (A) (A) (A) (A) (A) (A) (A) (A) (A)
                 (A) (A) (A) (A) (A) (A) (A) (A) (A) (A) (A) (A)
                 (A) (A) (A)
 Requested convergence on RMS density matrix=1.00D-08 within 128 cycles.
 Requested convergence on MAX density matrix=1.00D-06.
 Requested convergence on             energy=1.00D-06.
 No special actions if energy rises.
 Keep R1 integrals in memory in canonical form, NReq=    92469124.
 SCF Done:  E(RHF) =  -303.611687385     A.U. after    8 cycles
             Convg  =    0.4557D-08             -V/T =  2.0017
             S**2   =   0.0000
 ExpMin= 2.97D-02 ExpMax= 1.17D+04 ExpMxC= 4.01D+02 IAcc=3 IRadAn=         5 AccDes= 0.00D+00
 HarFok:  IExCor= 205 AccDes= 0.00D+00 IRadAn=         5 IDoV=1
 ScaDFX=  1.000000  1.000000  1.000000  1.000000
 Range of M.O.s used for correlation:     5   155
 NBasis=   155 NAE=    20 NBE=    20 NFC=     4 NFV=     0
 NROrb=    151 NOA=    16 NOB=    16 NVA=   135 NVB=   135

 **** Warning!!: The largest alpha MO coefficient is  0.13873284D+02

 Fully direct method using O(ONN) memory.
 JobTyp=1 Pass  1:  I=   5 to  20 NPSUse=  4 ParTrn=T ParDer=T DoDerP=T.
 Spin components of T(2) and E(2):
     alpha-alpha T2 =       0.3504899444D-01 E2=     -0.1206454679D+00
     alpha-beta  T2 =       0.1871046537D+00 E2=     -0.6751536501D+00
     beta-beta   T2 =       0.3504899444D-01 E2=     -0.1206454679D+00
 ANorm=    0.1121250482D+01
 E2 =    -0.9164445859D+00 EUMP2 =    -0.30452813197063D+03
 DoAtom=TTTTTTTTTTT
          Differentiating once with respect to electric field.
                with respect to dipole field.
          Differentiating once with respect to nuclear coordinates.
          Store integrals in memory, NReq=    90152934.
          There are   1 degrees of freedom in the 1st order CPHF.
     1 vectors were produced by pass  0.
 AX will form   1 AO Fock derivatives at one time.
     1 vectors were produced by pass  1.
     1 vectors were produced by pass  2.
     1 vectors were produced by pass  3.
     1 vectors were produced by pass  4.
     1 vectors were produced by pass  5.
     1 vectors were produced by pass  6.
     1 vectors were produced by pass  7.
     1 vectors were produced by pass  8.
     1 vectors were produced by pass  9.
     1 vectors were produced by pass 10.
     1 vectors were produced by pass 11.
 Inv2:  IOpt= 1 Iter= 1 AM= 4.28D-16 Conv= 1.00D-12.
 Inverted reduced A of dimension   12 with in-core refinement.
 End of Minotr Frequency-dependent properties file   721 does not exist.
 ***** Axes restored to original set *****
 -------------------------------------------------------------------
 Center     Atomic                   Forces (Hartrees/Bohr)
 Number     Number              X              Y              Z
 -------------------------------------------------------------------
    1          8          -0.000082670    0.000012353    0.000099139
    2          8           0.000055823    0.000064197    0.000098584
    3          8          -0.000010280   -0.000004319    0.000176050
    4          8           0.000024833   -0.000090161    0.000098219
    5          1          -0.000082701   -0.000055119   -0.000091262
    6          1           0.000095190   -0.000069380   -0.000052768
    7          1           0.000109153   -0.000041182   -0.000093614
    8          1          -0.000109243   -0.000048491   -0.000053123
    9          1           0.000004851   -0.000004411   -0.000034091
   10          1          -0.000018005    0.000118962   -0.000094668
   11          1           0.000013050    0.000117549   -0.000052467
 -------------------------------------------------------------------
 Cartesian Forces:  Max     0.000176050 RMS     0.000077658

 GradGradGradGradGradGradGradGradGradGradGradGradGradGradGradGradGradGrad
 Berny optimization.
 Internal  Forces:  Max     0.000120676 RMS     0.000049628
 Search for a local minimum.
 Step number   3 out of a maximum of 100
 All quantities printed in internal units (Hartrees-Bohrs-Radians)
 Update second derivatives using D2CorX and points  1  2  3
 Trust test= 1.41D+00 RLast= 1.69D-02 DXMaxT set to 3.00D-01
     Eigenvalues ---    0.00119   0.00230   0.00230   0.00537   0.00831
     Eigenvalues ---    0.00832   0.04841   0.07532   0.07546   0.08703
     Eigenvalues ---    0.08708   0.08710   0.13489   0.13500   0.16000
     Eigenvalues ---    0.16000   0.21776   0.24096   0.25000   0.25001
     Eigenvalues ---    0.44841   0.45160   0.45169   0.54240   0.54291
     Eigenvalues ---    0.54292   0.826221000.000001000.000001000.00000
     Eigenvalues --- 1000.000001000.000001000.000001000.00000
 RFO step:  Lambda=-6.89209662D-07.
 Quartic linear search produced a step of  0.59783.
 Iteration  1 RMS(Cart)=  0.00361669 RMS(Int)=  0.00002166
 Iteration  2 RMS(Cart)=  0.00000593 RMS(Int)=  0.00000124
 Iteration  3 RMS(Cart)=  0.00000000 RMS(Int)=  0.00000124
 Variable       Old X    -DE/DX   Delta X   Delta X   Delta X     New X
                                 (Linear)    (Quad)   (Total)
    R1        1.82405   0.00012  -0.00019   0.00001  -0.00018   1.82387
    R2        1.91767  -0.00001  -0.00010  -0.00011  -0.00022   1.91746
    R3        1.91767  -0.00002  -0.00010  -0.00011  -0.00022   1.91745
    R4        1.82405   0.00012  -0.00019   0.00001  -0.00018   1.82387
    R5        3.06338   0.00000   0.00014   0.00019   0.00033   3.06371
    R6        3.06300   0.00001   0.00021   0.00028   0.00048   3.06349
    R7        1.82518  -0.00003   0.00002  -0.00003   0.00000   1.82518
    R8        3.06303   0.00000   0.00020   0.00026   0.00046   3.06349
    R9        1.91758  -0.00001  -0.00009  -0.00009  -0.00018   1.91740
   R10        1.82406   0.00012  -0.00019   0.00001  -0.00018   1.82387
    A1        1.77047  -0.00009   0.00052  -0.00007   0.00045   1.77092
    A2        1.77045  -0.00009   0.00053  -0.00007   0.00046   1.77091
    A3        1.81788  -0.00003  -0.00071  -0.00106  -0.00177   1.81611
    A4        1.99669   0.00002   0.00047   0.00072   0.00119   1.99788
    A5        1.81810  -0.00003  -0.00064  -0.00096  -0.00161   1.81649
    A6        1.99585   0.00003   0.00063   0.00094   0.00157   1.99742
    A7        1.81776  -0.00003  -0.00067  -0.00100  -0.00167   1.81609
    A8        1.99586   0.00003   0.00063   0.00094   0.00158   1.99743
    A9        1.77035  -0.00009   0.00054  -0.00006   0.00048   1.77083
   A10        3.01864  -0.00003  -0.00029  -0.00038  -0.00067   3.01797
   A11        3.01934  -0.00004  -0.00040  -0.00054  -0.00095   3.01840
   A12        3.01934  -0.00004  -0.00037  -0.00050  -0.00088   3.01847
    D1        0.58271  -0.00002  -0.00282  -0.00587  -0.00869   0.57402
    D2        0.58210  -0.00002  -0.00278  -0.00581  -0.00860   0.57351
    D3       -0.55192   0.00003   0.00330   0.00256   0.00586  -0.54606
    D4       -2.74321   0.00000   0.00273   0.00169   0.00442  -2.73879
    D5        1.34852  -0.00003   0.00210   0.00075   0.00286   1.35138
    D6        1.34445  -0.00002   0.00233   0.00112   0.00345   1.34790
    D7       -2.74692   0.00000   0.00280   0.00185   0.00465  -2.74226
    D8       -0.55625   0.00003   0.00351   0.00290   0.00641  -0.54983
    D9       -0.55680   0.00003   0.00360   0.00301   0.00660  -0.55021
   D10        1.34373  -0.00003   0.00236   0.00115   0.00352   1.34725
   D11       -2.74879   0.00000   0.00307   0.00221   0.00528  -2.74351
   D12        0.57759  -0.00001  -0.00250  -0.00541  -0.00791   0.56968
         Item               Value     Threshold  Converged?
 Maximum Force            0.000121     0.000450     YES
 RMS     Force            0.000050     0.000300     YES
 Maximum Displacement     0.008806     0.001800     NO 
 RMS     Displacement     0.003617     0.001200     NO 
 Predicted change in Energy=-4.753902D-07
 GradGradGradGradGradGradGradGradGradGradGradGradGradGradGradGradGradGrad

                          Input orientation:                          
 ---------------------------------------------------------------------
 Center     Atomic     Atomic              Coordinates (Angstroms)
 Number     Number      Type              X           Y           Z
 ---------------------------------------------------------------------
    1          8             0       -2.181097   -0.862769   -0.298407
    2          8             0        0.342972    2.319771   -0.298334
    3          8             0       -0.000193   -0.000273    0.894203
    4          8             0        1.838222   -1.456663   -0.298259
    5          1             0        1.137252   -0.940730    0.223235
    6          1             0       -1.772546   -1.551972   -0.836555
    7          1             0        0.245835    1.454774    0.223112
    8          1             0       -0.458179    2.310393   -0.836463
    9          1             0       -0.000500   -0.000042    1.860046
   10          1             0       -1.383348   -0.514563    0.223045
   11          1             0        2.230193   -0.757644   -0.836079
 ---------------------------------------------------------------------
                    Distance matrix (angstroms):
                    1          2          3          4          5
     1  O    0.000000
     2  O    4.061957   0.000000
     3  O    2.631076   2.631066   0.000000
     4  O    4.062959   4.061678   2.631123   0.000000
     5  H    3.360004   3.396142   1.621245   1.014644   0.000000
     6  H    0.965152   4.444715   2.923102   3.651916   3.156531
     7  H    3.396026   1.014672   1.621128   3.359166   2.555986
     8  H    3.650604   0.965150   2.923034   4.444528   3.773348
     9  H    3.187196   3.187179   0.965843   3.187620   2.204205
    10  H    1.014674   3.359385   1.621131   3.396737   2.556372
    11  H    4.445180   3.649830   2.922688   0.965153   1.533032
                    6          7          8          9         10
     6  H    0.000000
     7  H    3.773232   0.000000
     8  H    4.079880   1.533107   0.000000
     9  H    3.580543   2.203798   3.580326   0.000000
    10  H    1.533116   2.555881   3.155767   2.203808   0.000000
    11  H    4.080793   3.155053   4.079240   3.580369   3.773395
                   11
    11  H    0.000000
 Stoichiometry    H7O4(1-)
 Framework group  C1[X(H7O4)]
 Deg. of freedom    27
 Full point group                 C1
 Largest Abelian subgroup         C1      NOp   1
 Largest concise Abelian subgroup C1      NOp   1
                         Standard orientation:                         
 ---------------------------------------------------------------------
 Center     Atomic     Atomic              Coordinates (Angstroms)
 Number     Number      Type              X           Y           Z
 ---------------------------------------------------------------------
    1          8             0       -2.182943   -0.857973   -0.298765
    2          8             0        0.348144    2.318990   -0.298692
    3          8             0       -0.000141   -0.000292    0.893845
    4          8             0        1.835055   -1.460736   -0.298617
    5          1             0        1.135225   -0.943257    0.222877
    6          1             0       -1.775914   -1.548075   -0.836913
    7          1             0        0.249098    1.454209    0.222753
    8          1             0       -0.453026    2.311379   -0.836821
    9          1             0       -0.000447   -0.000060    1.859687
   10          1             0       -1.384427   -0.511528    0.222687
   11          1             0        2.228568   -0.762583   -0.836437
 ---------------------------------------------------------------------
 Rotational constants (GHZ):      3.0369655      3.0350102      1.7590611
 Standard basis: Aug-CC-pVDZ (5D, 7F)
 There are   155 symmetry adapted basis functions of A   symmetry.
 Integral buffers will be    131072 words long.
 Raffenetti 1 integral format.
 Two-electron integral symmetry is turned on.
   155 basis functions,   249 primitive gaussians,   163 cartesian basis functions
    20 alpha electrons       20 beta electrons
       nuclear repulsion energy       127.8389636605 Hartrees.
 NAtoms=   11 NActive=   11 NUniq=   11 SFac= 7.50D-01 NAtFMM=   80 NAOKFM=F Big=F
 One-electron integrals computed using PRISM.
 NBasis=   155 RedAO= T  NBF=   155
 NBsUse=   155 1.00D-06 NBFU=   155
 Initial guess read from the read-write file:
 Initial guess orbital symmetries:
       Occupied  (A) (A) (A) (A) (A) (A) (A) (A) (A) (A) (A) (A)
                 (A) (A) (A) (A) (A) (A) (A) (A)
       Virtual   (A) (A) (A) (A) (A) (A) (A) (A) (A) (A) (A) (A)
                 (A) (A) (A) (A) (A) (A) (A) (A) (A) (A) (A) (A)
                 (A) (A) (A) (A) (A) (A) (A) (A) (A) (A) (A) (A)
                 (A) (A) (A) (A) (A) (A) (A) (A) (A) (A) (A) (A)
                 (A) (A) (A) (A) (A) (A) (A) (A) (A) (A) (A) (A)
                 (A) (A) (A) (A) (A) (A) (A) (A) (A) (A) (A) (A)
                 (A) (A) (A) (A) (A) (A) (A) (A) (A) (A) (A) (A)
                 (A) (A) (A) (A) (A) (A) (A) (A) (A) (A) (A) (A)
                 (A) (A) (A) (A) (A) (A) (A) (A) (A) (A) (A) (A)
                 (A) (A) (A) (A) (A) (A) (A) (A) (A) (A) (A) (A)
                 (A) (A) (A) (A) (A) (A) (A) (A) (A) (A) (A) (A)
                 (A) (A) (A)
 Requested convergence on RMS density matrix=1.00D-08 within 128 cycles.
 Requested convergence on MAX density matrix=1.00D-06.
 Requested convergence on             energy=1.00D-06.
 No special actions if energy rises.
 Keep R1 integrals in memory in canonical form, NReq=    92469124.
 SCF Done:  E(RHF) =  -303.611721997     A.U. after    9 cycles
             Convg  =    0.2583D-08             -V/T =  2.0017
             S**2   =   0.0000
 ExpMin= 2.97D-02 ExpMax= 1.17D+04 ExpMxC= 4.01D+02 IAcc=3 IRadAn=         5 AccDes= 0.00D+00
 HarFok:  IExCor= 205 AccDes= 0.00D+00 IRadAn=         5 IDoV=1
 ScaDFX=  1.000000  1.000000  1.000000  1.000000
 Range of M.O.s used for correlation:     5   155
 NBasis=   155 NAE=    20 NBE=    20 NFC=     4 NFV=     0
 NROrb=    151 NOA=    16 NOB=    16 NVA=   135 NVB=   135

 **** Warning!!: The largest alpha MO coefficient is  0.14034036D+02

 Fully direct method using O(ONN) memory.
 JobTyp=1 Pass  1:  I=   5 to  20 NPSUse=  4 ParTrn=T ParDer=T DoDerP=T.
 Spin components of T(2) and E(2):
     alpha-alpha T2 =       0.3504592292D-01 E2=     -0.1206405543D+00
     alpha-beta  T2 =       0.1870875496D+00 E2=     -0.6751295649D+00
     beta-beta   T2 =       0.3504592292D-01 E2=     -0.1206405543D+00
 ANorm=    0.1121240115D+01
 E2 =    -0.9164106734D+00 EUMP2 =    -0.30452813267077D+03
 DoAtom=TTTTTTTTTTT
          Differentiating once with respect to electric field.
                with respect to dipole field.
          Differentiating once with respect to nuclear coordinates.
          Store integrals in memory, NReq=    90152934.
          There are   1 degrees of freedom in the 1st order CPHF.
     1 vectors were produced by pass  0.
 AX will form   1 AO Fock derivatives at one time.
     1 vectors were produced by pass  1.
     1 vectors were produced by pass  2.
     1 vectors were produced by pass  3.
     1 vectors were produced by pass  4.
     1 vectors were produced by pass  5.
     1 vectors were produced by pass  6.
     1 vectors were produced by pass  7.
     1 vectors were produced by pass  8.
     1 vectors were produced by pass  9.
     1 vectors were produced by pass 10.
     1 vectors were produced by pass 11.
 Inv2:  IOpt= 1 Iter= 1 AM= 3.28D-16 Conv= 1.00D-12.
 Inverted reduced A of dimension   12 with in-core refinement.
 End of Minotr Frequency-dependent properties file   721 does not exist.
 ***** Axes restored to original set *****
 -------------------------------------------------------------------
 Center     Atomic                   Forces (Hartrees/Bohr)
 Number     Number              X              Y              Z
 -------------------------------------------------------------------
    1          8          -0.000198656    0.000107169    0.000113220
    2          8           0.000197399    0.000118375    0.000114853
    3          8          -0.000007266   -0.000003562    0.000162121
    4          8           0.000000788   -0.000235339    0.000113220
    5          1          -0.000067901    0.000010573   -0.000071301
    6          1           0.000163517   -0.000129315   -0.000077810
    7          1           0.000039477   -0.000064462   -0.000073813
    8          1          -0.000196394   -0.000078263   -0.000078514
    9          1           0.000002375   -0.000002712   -0.000052252
   10          1           0.000036103    0.000070354   -0.000072062
   11          1           0.000030557    0.000207182   -0.000077662
 -------------------------------------------------------------------
 Cartesian Forces:  Max     0.000235339 RMS     0.000111452

 GradGradGradGradGradGradGradGradGradGradGradGradGradGradGradGradGradGrad
 Berny optimization.
 Internal  Forces:  Max     0.000207559 RMS     0.000080826
 Search for a local minimum.
 Step number   4 out of a maximum of 100
 All quantities printed in internal units (Hartrees-Bohrs-Radians)
 Update second derivatives using D2CorX and points  1  2  3  4
 Trust test= 1.47D+00 RLast= 2.12D-02 DXMaxT set to 3.00D-01
     Eigenvalues ---    0.00057   0.00230   0.00230   0.00628   0.00831
     Eigenvalues ---    0.00832   0.04372   0.07522   0.07534   0.08704
     Eigenvalues ---    0.08708   0.08715   0.13481   0.13492   0.16000
     Eigenvalues ---    0.16000   0.22709   0.24986   0.25001   0.25607
     Eigenvalues ---    0.45160   0.45164   0.45451   0.54248   0.54291
     Eigenvalues ---    0.54292   1.076891000.000001000.000001000.00000
     Eigenvalues --- 1000.000001000.000001000.000001000.00000
 RFO step:  Lambda=-8.42572736D-07.
 Quartic linear search produced a step of  1.01658.
 Iteration  1 RMS(Cart)=  0.00515013 RMS(Int)=  0.00009338
 Iteration  2 RMS(Cart)=  0.00001504 RMS(Int)=  0.00000432
 Iteration  3 RMS(Cart)=  0.00000000 RMS(Int)=  0.00000432
 Variable       Old X    -DE/DX   Delta X   Delta X   Delta X     New X
                                 (Linear)    (Quad)   (Total)
    R1        1.82387   0.00020  -0.00018  -0.00002  -0.00020   1.82367
    R2        1.91746   0.00002  -0.00022  -0.00006  -0.00028   1.91718
    R3        1.91745   0.00002  -0.00022  -0.00006  -0.00028   1.91717
    R4        1.82387   0.00021  -0.00019  -0.00002  -0.00020   1.82367
    R5        3.06371   0.00000   0.00034   0.00023   0.00057   3.06427
    R6        3.06349   0.00000   0.00049   0.00033   0.00082   3.06431
    R7        1.82518  -0.00005   0.00000  -0.00002  -0.00003   1.82515
    R8        3.06349   0.00000   0.00047   0.00031   0.00078   3.06427
    R9        1.91740   0.00002  -0.00018  -0.00004  -0.00022   1.91718
   R10        1.82387   0.00021  -0.00018  -0.00002  -0.00020   1.82367
    A1        1.77092  -0.00016   0.00046  -0.00009   0.00037   1.77129
    A2        1.77091  -0.00016   0.00047  -0.00009   0.00037   1.77128
    A3        1.81611  -0.00003  -0.00180  -0.00145  -0.00326   1.81284
    A4        1.99788   0.00002   0.00121   0.00101   0.00222   2.00010
    A5        1.81649  -0.00003  -0.00164  -0.00133  -0.00297   1.81352
    A6        1.99742   0.00003   0.00160   0.00128   0.00288   2.00030
    A7        1.81609  -0.00003  -0.00170  -0.00138  -0.00309   1.81300
    A8        1.99743   0.00003   0.00160   0.00128   0.00288   2.00032
    A9        1.77083  -0.00016   0.00049  -0.00007   0.00042   1.77124
   A10        3.01797  -0.00004  -0.00068  -0.00062  -0.00130   3.01667
   A11        3.01840  -0.00005  -0.00096  -0.00083  -0.00179   3.01661
   A12        3.01847  -0.00005  -0.00089  -0.00078  -0.00167   3.01679
    D1        0.57402   0.00000  -0.00883  -0.00455  -0.01338   0.56065
    D2        0.57351   0.00000  -0.00874  -0.00447  -0.01321   0.56030
    D3       -0.54606   0.00003   0.00596   0.00706   0.01301  -0.53305
    D4       -2.73879   0.00001   0.00449   0.00587   0.01037  -2.72842
    D5        1.35138  -0.00002   0.00290   0.00459   0.00750   1.35888
    D6        1.34790  -0.00002   0.00351   0.00507   0.00859   1.35650
    D7       -2.74226   0.00000   0.00473   0.00609   0.01082  -2.73145
    D8       -0.54983   0.00003   0.00652   0.00751   0.01402  -0.53581
    D9       -0.55021   0.00003   0.00671   0.00764   0.01434  -0.53586
   D10        1.34725  -0.00002   0.00358   0.00511   0.00870   1.35594
   D11       -2.74351   0.00001   0.00537   0.00653   0.01190  -2.73161
   D12        0.56968   0.00000  -0.00804  -0.00395  -0.01199   0.55770
         Item               Value     Threshold  Converged?
 Maximum Force            0.000208     0.000450     YES
 RMS     Force            0.000081     0.000300     YES
 Maximum Displacement     0.012459     0.001800     NO 
 RMS     Displacement     0.005149     0.001200     NO 
 Predicted change in Energy=-6.766241D-07
 GradGradGradGradGradGradGradGradGradGradGradGradGradGradGradGradGradGrad

                          Input orientation:                          
 ---------------------------------------------------------------------
 Center     Atomic     Atomic              Coordinates (Angstroms)
 Number     Number      Type              X           Y           Z
 ---------------------------------------------------------------------
    1          8             0       -2.178099   -0.861143   -0.300464
    2          8             0        0.342708    2.316248   -0.300490
    3          8             0       -0.000263   -0.000290    0.899220
    4          8             0        1.835318   -1.454660   -0.300235
    5          1             0        1.135193   -0.940706    0.224117
    6          1             0       -1.767102   -1.548590   -0.838806
    7          1             0        0.247025    1.453149    0.224067
    8          1             0       -0.458178    2.303800   -0.838760
    9          1             0       -0.000197   -0.000369    1.865049
   10          1             0       -1.382644   -0.512651    0.224005
   11          1             0        2.224853   -0.754507   -0.838159
 ---------------------------------------------------------------------
                    Distance matrix (angstroms):
                    1          2          3          4          5
     1  O    0.000000
     2  O    4.055895   0.000000
     3  O    2.631212   2.631213   0.000000
     4  O    4.057064   4.055568   2.631205   0.000000
     5  H    3.355506   3.392786   1.621544   1.014529   0.000000
     6  H    0.965046   4.435995   2.922274   3.643667   3.150023
     7  H    3.392978   1.014523   1.621563   3.354537   2.553308
     8  H    3.642081   0.965043   2.922172   4.435781   3.767672
     9  H    3.189613   3.189649   0.965829   3.189441   2.205901
    10  H    1.014526   3.354789   1.621544   3.393742   2.553964
    11  H    4.436944   3.641579   2.922066   0.965047   1.533121
                    6          7          8          9         10
     6  H    0.000000
     7  H    3.767869   0.000000
     8  H    4.068683   1.533140   0.000000
     9  H    3.581867   2.206050   3.581833   0.000000
    10  H    1.533149   2.553466   3.149048   2.206041   0.000000
    11  H    4.070169   3.148630   4.068402   3.581467   3.768384
                   11
    11  H    0.000000
 Stoichiometry    H7O4(1-)
 Framework group  C1[X(H7O4)]
 Deg. of freedom    27
 Full point group                 C1
 Largest Abelian subgroup         C1      NOp   1
 Largest concise Abelian subgroup C1      NOp   1
                         Standard orientation:                         
 ---------------------------------------------------------------------
 Center     Atomic     Atomic              Coordinates (Angstroms)
 Number     Number      Type              X           Y           Z
 ---------------------------------------------------------------------
    1          8             0       -2.174167   -0.870816   -0.300612
    2          8             0        0.332542    2.317709   -0.300638
    3          8             0       -0.000166   -0.000326    0.899072
    4          8             0        1.841838   -1.446552   -0.300383
    5          1             0        1.139445   -0.935703    0.223970
    6          1             0       -1.760130   -1.556436   -0.838954
    7          1             0        0.240682    1.454194    0.223919
    8          1             0       -0.468281    2.301713   -0.838908
    9          1             0       -0.000099   -0.000405    1.864901
   10          1             0       -1.380264   -0.518804    0.223858
   11          1             0        2.228269   -0.744680   -0.838307
 ---------------------------------------------------------------------
 Rotational constants (GHZ):      3.0409447      3.0386172      1.7644921
 Standard basis: Aug-CC-pVDZ (5D, 7F)
 There are   155 symmetry adapted basis functions of A   symmetry.
 Integral buffers will be    131072 words long.
 Raffenetti 1 integral format.
 Two-electron integral symmetry is turned on.
   155 basis functions,   249 primitive gaussians,   163 cartesian basis functions
    20 alpha electrons       20 beta electrons
       nuclear repulsion energy       127.8985465785 Hartrees.
 NAtoms=   11 NActive=   11 NUniq=   11 SFac= 7.50D-01 NAtFMM=   80 NAOKFM=F Big=F
 One-electron integrals computed using PRISM.
 NBasis=   155 RedAO= T  NBF=   155
 NBsUse=   155 1.00D-06 NBFU=   155
 Initial guess read from the read-write file:
 Initial guess orbital symmetries:
       Occupied  (A) (A) (A) (A) (A) (A) (A) (A) (A) (A) (A) (A)
                 (A) (A) (A) (A) (A) (A) (A) (A)
       Virtual   (A) (A) (A) (A) (A) (A) (A) (A) (A) (A) (A) (A)
                 (A) (A) (A) (A) (A) (A) (A) (A) (A) (A) (A) (A)
                 (A) (A) (A) (A) (A) (A) (A) (A) (A) (A) (A) (A)
                 (A) (A) (A) (A) (A) (A) (A) (A) (A) (A) (A) (A)
                 (A) (A) (A) (A) (A) (A) (A) (A) (A) (A) (A) (A)
                 (A) (A) (A) (A) (A) (A) (A) (A) (A) (A) (A) (A)
                 (A) (A) (A) (A) (A) (A) (A) (A) (A) (A) (A) (A)
                 (A) (A) (A) (A) (A) (A) (A) (A) (A) (A) (A) (A)
                 (A) (A) (A) (A) (A) (A) (A) (A) (A) (A) (A) (A)
                 (A) (A) (A) (A) (A) (A) (A) (A) (A) (A) (A) (A)
                 (A) (A) (A) (A) (A) (A) (A) (A) (A) (A) (A) (A)
                 (A) (A) (A)
 Requested convergence on RMS density matrix=1.00D-08 within 128 cycles.
 Requested convergence on MAX density matrix=1.00D-06.
 Requested convergence on             energy=1.00D-06.
 No special actions if energy rises.
 Keep R1 integrals in memory in canonical form, NReq=    92469124.
 SCF Done:  E(RHF) =  -303.611762546     A.U. after    9 cycles
             Convg  =    0.5139D-08             -V/T =  2.0017
             S**2   =   0.0000
 ExpMin= 2.97D-02 ExpMax= 1.17D+04 ExpMxC= 4.01D+02 IAcc=3 IRadAn=         5 AccDes= 0.00D+00
 HarFok:  IExCor= 205 AccDes= 0.00D+00 IRadAn=         5 IDoV=1
 ScaDFX=  1.000000  1.000000  1.000000  1.000000
 Range of M.O.s used for correlation:     5   155
 NBasis=   155 NAE=    20 NBE=    20 NFC=     4 NFV=     0
 NROrb=    151 NOA=    16 NOB=    16 NVA=   135 NVB=   135

 **** Warning!!: The largest alpha MO coefficient is  0.14320740D+02

 Fully direct method using O(ONN) memory.
 JobTyp=1 Pass  1:  I=   5 to  20 NPSUse=  4 ParTrn=T ParDer=T DoDerP=T.
 Spin components of T(2) and E(2):
     alpha-alpha T2 =       0.3504237356D-01 E2=     -0.1206346460D+00
     alpha-beta  T2 =       0.1870678580D+00 E2=     -0.6751017921D+00
     beta-beta   T2 =       0.3504237356D-01 E2=     -0.1206346460D+00
 ANorm=    0.1121228168D+01
 E2 =    -0.9163710841D+00 EUMP2 =    -0.30452813363055D+03
 DoAtom=TTTTTTTTTTT
          Differentiating once with respect to electric field.
                with respect to dipole field.
          Differentiating once with respect to nuclear coordinates.
          Store integrals in memory, NReq=    90152934.
          There are   1 degrees of freedom in the 1st order CPHF.
     1 vectors were produced by pass  0.
 AX will form   1 AO Fock derivatives at one time.
     1 vectors were produced by pass  1.
     1 vectors were produced by pass  2.
     1 vectors were produced by pass  3.
     1 vectors were produced by pass  4.
     1 vectors were produced by pass  5.
     1 vectors were produced by pass  6.
     1 vectors were produced by pass  7.
     1 vectors were produced by pass  8.
     1 vectors were produced by pass  9.
     1 vectors were produced by pass 10.
     1 vectors were produced by pass 11.
 Inv2:  IOpt= 1 Iter= 1 AM= 2.81D-16 Conv= 1.00D-12.
 Inverted reduced A of dimension   12 with in-core refinement.
 End of Minotr Frequency-dependent properties file   721 does not exist.
 ***** Axes restored to original set *****
 -------------------------------------------------------------------
 Center     Atomic                   Forces (Hartrees/Bohr)
 Number     Number              X              Y              Z
 -------------------------------------------------------------------
    1          8          -0.000325938    0.000228193    0.000145635
    2          8           0.000367201    0.000169471    0.000150539
    3          8          -0.000001776   -0.000002219    0.000125861
    4          8          -0.000039975   -0.000400730    0.000146972
    5          1          -0.000027522    0.000092696   -0.000051203
    6          1           0.000242363   -0.000190713   -0.000114299
    7          1          -0.000061258   -0.000075567   -0.000053879
    8          1          -0.000290141   -0.000116477   -0.000115399
    9          1          -0.000001804    0.000000281   -0.000072065
   10          1           0.000094930   -0.000011556   -0.000047824
   11          1           0.000043919    0.000306621   -0.000114339
 -------------------------------------------------------------------
 Cartesian Forces:  Max     0.000400730 RMS     0.000168289

 GradGradGradGradGradGradGradGradGradGradGradGradGradGradGradGradGradGrad
 Berny optimization.
 Internal  Forces:  Max     0.000306655 RMS     0.000116796
 Search for a local minimum.
 Step number   5 out of a maximum of 100
 All quantities printed in internal units (Hartrees-Bohrs-Radians)
 Update second derivatives using D2CorX and points  1  2  3  4  5

 Trust test= 1.42D+00 RLast= 4.12D-02 DXMaxT set to 3.00D-01
     Eigenvalues ---    0.00040   0.00230   0.00230   0.00601   0.00831
     Eigenvalues ---    0.00832   0.04248   0.07503   0.07513   0.08704
     Eigenvalues ---    0.08708   0.08728   0.13466   0.13477   0.16000
     Eigenvalues ---    0.16000   0.22834   0.24971   0.25000   0.25901
     Eigenvalues ---    0.45160   0.45166   0.45635   0.54253   0.54291
     Eigenvalues ---    0.54292   1.148541000.000001000.000001000.00000
     Eigenvalues --- 1000.000001000.000001000.000001000.00000
 RFO step:  Lambda=-8.08216858D-07.
 Quartic linear search produced a step of  0.74416.
 Iteration  1 RMS(Cart)=  0.00614371 RMS(Int)=  0.00009637
 Iteration  2 RMS(Cart)=  0.00001832 RMS(Int)=  0.00000626
 Iteration  3 RMS(Cart)=  0.00000000 RMS(Int)=  0.00000626
 Variable       Old X    -DE/DX   Delta X   Delta X   Delta X     New X
                                 (Linear)    (Quad)   (Total)
    R1        1.82367   0.00030  -0.00015   0.00016   0.00001   1.82368
    R2        1.91718   0.00004  -0.00021  -0.00003  -0.00024   1.91693
    R3        1.91717   0.00003  -0.00021  -0.00004  -0.00025   1.91692
    R4        1.82367   0.00031  -0.00015   0.00016   0.00001   1.82368
    R5        3.06427  -0.00001   0.00042   0.00009   0.00051   3.06479
    R6        3.06431  -0.00001   0.00061   0.00015   0.00076   3.06507
    R7        1.82515  -0.00007  -0.00002  -0.00005  -0.00007   1.82508
    R8        3.06427  -0.00001   0.00058   0.00013   0.00071   3.06498
    R9        1.91718   0.00003  -0.00016  -0.00002  -0.00018   1.91700
   R10        1.82367   0.00030  -0.00015   0.00016   0.00001   1.82368
    A1        1.77129  -0.00023   0.00027  -0.00050  -0.00022   1.77107
    A2        1.77128  -0.00024   0.00028  -0.00051  -0.00023   1.77106
    A3        1.81284  -0.00002  -0.00243  -0.00106  -0.00350   1.80934
    A4        2.00010   0.00002   0.00165   0.00076   0.00241   2.00251
    A5        1.81352  -0.00002  -0.00221  -0.00097  -0.00320   1.81032
[...]
 This molecule is an asymmetric top.
 Rotational symmetry number  1.
 Warning -- assumption of classical behavior for rotation
           may cause significant error
 Rotational temperatures (Kelvin)      0.17024     0.16956     0.12770
 Rotational constants (GHZ):           3.54732     3.53304     2.66089
 Zero-point vibrational energy     220613.5 (Joules/Mol)
                                   52.72788 (Kcal/Mol)
 Warning -- explicit consideration of  14 degrees of freedom as
           vibrations may cause significant error
 Vibrational temperatures:     57.96    59.56    65.42   336.72   337.30
          (Kelvin)            419.40   419.54   460.90   461.91   498.31
                              667.03   754.42   766.86   767.63  1391.84
                             1406.06  1407.56  2459.18  2459.43  2466.94
                             4353.01  4358.18  4567.58  5515.16  5518.90
                             5519.65  5570.91
 
 Zero-point correction=                           0.084027 (Hartree/Particle)
 Thermal correction to Energy=                    0.093436
 Thermal correction to Enthalpy=                  0.094380
 Thermal correction to Gibbs Free Energy=         0.049685
 Sum of electronic and zero-point Energies=           -304.444200
 Sum of electronic and thermal Energies=              -304.434791
 Sum of electronic and thermal Enthalpies=            -304.433847
 Sum of electronic and thermal Free Energies=         -304.478542
 
                     E (Thermal)             CV                S
                      KCal/Mol        Cal/Mol-Kelvin    Cal/Mol-Kelvin
 Total                   58.632             29.913             94.069
 Electronic               0.000              0.000              0.000
 Translational            0.889              2.981             38.699
 Rotational               0.889              2.981             26.669
 Vibrational             56.855             23.952             28.701
 Vibration  1             0.594              1.981              5.245
 Vibration  2             0.594              1.981              5.191
 Vibration  3             0.595              1.979              5.005
 Vibration  4             0.654              1.789              1.848
 Vibration  5             0.654              1.788              1.845
 Vibration  6             0.687              1.690              1.465
 Vibration  7             0.687              1.689              1.465
 Vibration  8             0.706              1.635              1.308
 Vibration  9             0.707              1.633              1.305
 Vibration 10             0.724              1.583              1.183
 Vibration 11             0.821              1.331              0.756
 Vibration 12             0.879              1.196              0.600
 Vibration 13             0.888              1.177              0.581
 Vibration 14             0.889              1.176              0.579
                       Q            Log10(Q)             Ln(Q)
 Total Bot       0.140102D-22        -22.853557        -52.622259
 Total V=0       0.625471D+16         15.796207         36.372110
 Vib (Bot)       0.396145D-35        -35.402146        -81.516454
 Vib (Bot)  1    0.513597D+01          0.710622          1.636268
 Vib (Bot)  2    0.499718D+01          0.698725          1.608873
 Vib (Bot)  3    0.454849D+01          0.657867          1.514795
 Vib (Bot)  4    0.840100D+00         -0.075669         -0.174234
 Vib (Bot)  5    0.838491D+00         -0.076501         -0.176151
 Vib (Bot)  6    0.655501D+00         -0.183427         -0.422356
 Vib (Bot)  7    0.655244D+00         -0.183597         -0.422747
 Vib (Bot)  8    0.586692D+00         -0.231590         -0.533256
 Vib (Bot)  9    0.585173D+00         -0.232716         -0.535847
 Vib (Bot) 10    0.533968D+00         -0.272485         -0.627420
 Vib (Bot) 11    0.365784D+00         -0.436775         -1.005712
 Vib (Bot) 12    0.306606D+00         -0.513419         -1.182192
 Vib (Bot) 13    0.299219D+00         -0.524011         -1.206581
 Vib (Bot) 14    0.298772D+00         -0.524660         -1.208075
 Vib (V=0)       0.176855D+04          3.247618          7.477916
 Vib (V=0)  1    0.566025D+01          0.752835          1.733467
 Vib (V=0)  2    0.552213D+01          0.742107          1.708764
 Vib (V=0)  3    0.507589D+01          0.705512          1.624501
 Vib (V=0)  4    0.147763D+01          0.169567          0.390442
 Vib (V=0)  5    0.147625D+01          0.169160          0.389506
 Vib (V=0)  6    0.132443D+01          0.122028          0.280981
 Vib (V=0)  7    0.132422D+01          0.121961          0.280827
 Vib (V=0)  8    0.127085D+01          0.104094          0.239685
 Vib (V=0)  9    0.126969D+01          0.103699          0.238775
 Vib (V=0) 10    0.123152D+01          0.090441          0.208249
 Vib (V=0) 11    0.111951D+01          0.049030          0.112895
 Vib (V=0) 12    0.108652D+01          0.036038          0.082981
 Vib (V=0) 13    0.108269D+01          0.034506          0.079452
 Vib (V=0) 14    0.108246D+01          0.034414          0.079240
 Electronic      0.100000D+01          0.000000          0.000000
 Translational   0.235320D+08          7.371659         16.973871
 Rotational      0.150290D+06          5.176931         11.920324
 ***** Axes restored to original set *****
 -------------------------------------------------------------------
 Center     Atomic                   Forces (Hartrees/Bohr)
 Number     Number              X              Y              Z
 -------------------------------------------------------------------
    1          8          -0.000008060    0.000001307   -0.000006118
    2          8           0.000005056    0.000008897   -0.000005356
    3          8           0.000015342    0.000014676   -0.000010400
    4          8          -0.000003934   -0.000005061   -0.000015772
    5          1           0.000000495    0.000003699    0.000017550
    6          1           0.000003602    0.000002594    0.000001042
    7          1          -0.000014030   -0.000004128    0.000006990
    8          1           0.000002311   -0.000002427    0.000000398
    9          1          -0.000002845   -0.000005675    0.000007533
   10          1           0.000000518   -0.000009762    0.000001651
   11          1           0.000001544   -0.000004119    0.000002483
 -------------------------------------------------------------------
 Cartesian Forces:  Max     0.000017550 RMS     0.000007636

 GradGradGradGradGradGradGradGradGradGradGradGradGradGradGradGradGradGrad
 Berny optimization.
 Internal  Forces:  Max     0.000013468 RMS     0.000005730
 Search for a local minimum.
 Step number   1 out of a maximum of   2
 All quantities printed in internal units (Hartrees-Bohrs-Radians)
 Second derivative matrix not updated -- analytic derivatives used.
     Eigenvalues ---    0.00060   0.00061   0.00097   0.00259   0.00264
     Eigenvalues ---    0.00593   0.00676   0.00692   0.01764   0.01775
     Eigenvalues ---    0.02408   0.02421   0.02481   0.03453   0.04770
     Eigenvalues ---    0.04794   0.04803   0.13760   0.13781   0.14239
     Eigenvalues ---    0.40393   0.40442   0.41276   0.53103   0.53171
     Eigenvalues ---    0.53183   0.538161000.000001000.000001000.00000
     Eigenvalues --- 1000.000001000.000001000.000001000.00000
 Angle between quadratic step and forces=  61.84 degrees.
 Linear search not attempted -- first point.
 Iteration  1 RMS(Cart)=  0.00269481 RMS(Int)=  0.00000317
 Iteration  2 RMS(Cart)=  0.00000371 RMS(Int)=  0.00000113
 Iteration  3 RMS(Cart)=  0.00000000 RMS(Int)=  0.00000113
 Variable       Old X    -DE/DX   Delta X   Delta X   Delta X     New X
                                 (Linear)    (Quad)   (Total)
    R1        1.82926   0.00000   0.00000   0.00006   0.00006   1.82932
    R2        1.90246   0.00001   0.00000  -0.00022  -0.00022   1.90224
    R3        1.90229   0.00001   0.00000  -0.00004  -0.00004   1.90225
    R4        1.82933   0.00000   0.00000  -0.00001  -0.00001   1.82932
    R5        3.13736   0.00000   0.00000  -0.00172  -0.00172   3.13564
    R6        3.13560   0.00000   0.00000   0.00002   0.00002   3.13562
    R7        1.82203   0.00001   0.00000   0.00002   0.00002   1.82205
    R8        3.13397   0.00001   0.00000   0.00168   0.00168   3.13565
    R9        1.90190   0.00001   0.00000   0.00034   0.00034   1.90225
   R10        1.82937   0.00000   0.00000  -0.00005  -0.00005   1.82932
    A1        1.74030  -0.00001   0.00000  -0.00035  -0.00035   1.73995
    A2        1.73993   0.00000   0.00000   0.00002   0.00002   1.73996
    A3        1.52334   0.00001   0.00000   0.00196   0.00196   1.52531
    A4        2.21935   0.00000   0.00000  -0.00127  -0.00127   2.21808
    A5        1.52738  -0.00001   0.00000  -0.00209  -0.00209   1.52529
    A6        2.21695   0.00000   0.00000   0.00114   0.00114   2.21809
    A7        1.52507   0.00000   0.00000   0.00027   0.00027   1.52535
    A8        2.21806   0.00000   0.00000   0.00004   0.00004   2.21810
    A9        1.73971   0.00000   0.00000   0.00024   0.00024   1.73995
   A10        2.84001   0.00000   0.00000   0.00083   0.00083   2.84085
   A11        2.84079   0.00001   0.00000   0.00007   0.00007   2.84086
   A12        2.84185   0.00000   0.00000  -0.00101  -0.00101   2.84084
    D1        0.58117  -0.00001   0.00000  -0.00128  -0.00128   0.57988
    D2        0.58124   0.00000   0.00000  -0.00128  -0.00128   0.57996
    D3       -0.51761   0.00000   0.00000  -0.00225  -0.00225  -0.51986
    D4       -2.89275  -0.00001   0.00000  -0.00504  -0.00503  -2.89779
    D5        1.00944   0.00000   0.00000  -0.00197  -0.00197   1.00747
    D6        1.00950  -0.00001   0.00000  -0.00209  -0.00209   1.00741
    D7       -2.89678   0.00000   0.00000  -0.00107  -0.00107  -2.89785
    D8       -0.51995   0.00000   0.00000   0.00010   0.00010  -0.51986
    D9       -0.51939  -0.00001   0.00000  -0.00045  -0.00045  -0.51984
   D10        1.00585   0.00000   0.00000   0.00160   0.00160   1.00744
   D11       -2.90131   0.00000   0.00000   0.00356   0.00356  -2.89776
   D12        0.57502   0.00000   0.00000   0.00491   0.00491   0.57993
         Item               Value     Threshold  Converged?
 Maximum Force            0.000013     0.000450     YES
 RMS     Force            0.000006     0.000300     YES
 Maximum Displacement     0.006454     0.001800     NO 
 RMS     Displacement     0.002697     0.001200     NO 
 Predicted change in Energy=-7.950371D-08
 GradGradGradGradGradGradGradGradGradGradGradGradGradGradGradGradGradGrad

 1\1\GINC-NODE89\Freq\RMP2-FC\Aug-CC-pVDZ\H7O4(1-)\CHINH\13-May-2010\0\
 \#N Geom=AllCheck Guess=Read SCRF=Check GenChk RMP2(FC)/Aug-CC-pVDZ Fr
 eq\\Str 5\\-1,1\O,-1.8097965841,-0.6372625257,-0.5055944894\O,0.352517
 8871,1.8824835839,-0.5065035586\O,-0.0013503322,-0.0014526199,1.305342
 0916\O,1.4603614083,-1.2442163194,-0.50551812\H,0.974475875,-0.8976388
 111,0.304870428\H,-1.1603110349,-1.1719263826,-0.9844820981\H,0.291520
 9569,1.2890925903,0.3043672413\H,-0.4359809109,1.5872146425,-0.9841899
 64\H,-0.0022126583,0.0001529361,2.2695185481\H,-1.2645796018,-0.393348
 0412,0.3048195791\H,1.5939679947,-0.412818053,-0.983085658\\Version=AM
 64L-G03RevD.01\State=1-A\HF=-303.6107177\MP2=-304.528227\RMSD=9.493e-1
 0\RMSF=7.636e-06\ZeroPoint=0.0840272\Thermal=0.093436\Dipole=-0.002779
 1,0.0017665,-0.1715675\DipoleDeriv=-0.7150966,-0.2128281,-0.2451768,-0
 .2025744,-0.6463475,-0.0651808,-0.2675338,-0.0833704,-0.8412716,-0.484
 2435,0.0687938,0.0656968,0.0790633,-0.8775197,0.2443383,0.0613238,0.27
 26415,-0.8410854,-1.0566241,-0.0200913,-0.0003101,0.0192682,-1.0552294
 ,0.0015281,-0.0003811,0.0011047,-1.0512104,-0.8430762,0.1266353,0.1790
 386,0.1366838,-0.5181736,-0.1773488,0.2059795,-0.1876287,-0.8399557,0.
 4756776,-0.2128182,-0.3206997,-0.2112272,0.3176626,0.2389836,-0.367788
 4,0.2749485,0.645351,0.2280586,0.085452,0.0702834,0.0558958,0.239168,-
 0.0079772,0.0258099,0.001949,0.2429113,0.1737301,0.0387224,-0.0489886,
 0.040203,0.6198697,-0.3982647,-0.0567327,-0.4568355,0.647305,0.1758792
 ,-0.0246373,-0.0416688,-0.0542355,0.2924271,-0.056799,-0.0108767,-0.02
 33423,0.2430769,0.2048812,-0.0071599,0.0003316,0.007083,0.2054211,-0.0
 006759,0.0002699,-0.0003997,-0.096152,0.5431982,0.1734469,0.3702279,0.
 1748119,0.2511747,0.1571424,0.424926,0.1799936,0.6478949,0.2976155,-0.
 0155157,-0.0287344,-0.0449718,0.1715471,0.064254,-0.0149966,0.0209394,
 0.243136\Polar=47.2641013,0.0031751,47.2514335,-0.0009672,-0.0081944,4
 7.6903831\PG=C01 [X(H7O4)]\NImag=0\\0.39621701,-0.14749305,0.20350990,
 0.00426275,0.21917625,0.40115701,0.00011764,-0.00263405,0.00062531,0.3
 7993457,-0.00340743,-0.00183946,-0.00077351,0.15719645,0.22012273,0.00
 105154,-0.00062261,0.00514723,0.18734376,-0.11350365,0.40098676,-0.007
 57028,-0.00586754,-0.02248788,0.00689750,-0.00292002,0.00377682,0.0394
 0853,-0.00546326,0.00518368,-0.00865372,-0.00249898,-0.00924627,0.0237
 6603,0.00004097,0.03913599,-0.02117561,-0.00838639,-0.01748190,0.00332
 122,0.02247538,-0.01744621,-0.00044979,0.00084393,0.58804831,-0.003924
 46,0.00025907,0.00000492,0.00126168,0.00276750,-0.00097879,-0.00294810
 ,0.00851991,0.01782922,0.12431587,0.00103196,0.00223092,0.00121369,0.0
 0200133,-0.00299138,-0.00016552,0.00809441,0.00059066,-0.01398760,-0.0
 1166178,0.47605602,0.00036866,0.00092375,0.00512386,-0.00106433,-0.000
 58850,0.00514227,0.01868656,-0.01502080,-0.01735207,-0.19164705,-0.106
 41522,0.40109642,0.00207311,0.00028511,0.00306633,-0.00185759,-0.00102
 346,0.00349214,-0.00774559,-0.00224082,-0.00721456,-0.09616976,0.04016
 437,0.12792978,0.10477056,-0.00082169,-0.00206100,-0.00248009,-0.00000
 184,0.00149714,-0.00245934,-0.00102034,-0.00796486,0.00584593,0.064769
 63,-0.08635786,-0.10297509,-0.04019993,0.09043103,-0.00000237,-0.00170
 348,-0.00561273,0.00226169,-0.00007300,-0.00604777,-0.01191433,0.01184
 865,-0.00096763,0.12242919,-0.05744979,-0.23380714,-0.12243817,0.05612
 742,0.25155387,-0.24629500,0.19669213,0.17394797,-0.00064434,0.0004660
 5,0.00027229,-0.00317154,0.00023487,-0.00006705,0.00273497,0.00078975,
 0.00230992,-0.00029547,-0.00128345,-0.00322021,0.23819519,0.17160076,-
 0.16101296,-0.15042199,-0.00001052,0.00098302,0.00105952,-0.00048324,-
 0.00037606,0.00075689,0.00124376,-0.00169135,0.00069787,-0.00059482,0.
 00071535,-0.00056797,-0.18533740,0.16957063,0.13008696,-0.13291363,-0.
 14755487,0.00022247,0.00039806,-0.00078226,-0.00145648,0.00136960,0.00
 058300,0.00164313,0.00024578,-0.00141173,-0.00220927,-0.00061165,-0.00
 058324,-0.15812764,0.15655286,0.16799744,0.00022646,0.00119331,0.00040
 092,-0.04368889,-0.03486554,0.02624795,-0.00936067,0.00013748,-0.00150
 810,-0.00127057,-0.00112267,0.00062133,0.00188791,0.00154339,-0.002040
 06,0.00028518,-0.00000460,-0.00010592,0.05945825,0.00222277,-0.0005667
 4,0.00425601,-0.01029103,-0.13848606,0.16167719,0.00134856,-0.00640226
 ,-0.00919640,-0.00222550,0.00125058,0.00390413,0.00360370,-0.00512232,
 -0.00390512,-0.00021346,0.00006452,-0.00062662,0.01435034,0.13543519,-
 0.00108038,0.00198308,-0.00606928,-0.01060867,0.13440650,-0.23348244,-
 0.00438613,-0.01632375,-0.00094341,0.00147541,0.00089332,-0.00562047,-
 0.00433016,0.00209240,0.00858365,-0.00029630,-0.00102613,0.00049664,0.
 01170657,-0.13362727,0.25118403,-0.00148180,0.00119074,-0.00056263,-0.
 34229306,-0.11653086,-0.21685507,-0.00098047,-0.00079865,0.00068776,0.
 00038301,-0.00057910,0.00078235,0.00021422,0.00004766,-0.00073889,0.00
 057677,0.00039239,-0.00021662,-0.00428440,-0.00638678,0.00152832,0.347
 75831,0.00165367,0.00251640,-0.00237069,-0.14162564,-0.06550818,-0.075
 23318,-0.00151382,-0.00257795,-0.00032537,-0.00105811,-0.00005203,-0.0
 0076305,0.00025807,0.00013524,0.00076420,-0.00003082,-0.00159396,0.000
 09138,0.01871409,0.00714309,0.01620573,0.12245496,0.06055102,-0.000619
 25,-0.00155462,-0.00143012,-0.17971881,-0.04604253,-0.14695230,0.00191
 238,0.00056480,0.00058508,0.00023366,-0.00039314,-0.00078204,-0.000491
 79,0.00040270,0.00049569,-0.00010573,-0.00048804,0.00055593,-0.0365097
 8,-0.01300503,-0.02019655,0.21427604,0.05849271,0.16742007,-0.00557155
 ,-0.00237702,-0.00510370,0.00078889,-0.00147737,0.00113641,-0.00678210
 ,0.00011562,0.00047787,-0.00318560,0.00355277,0.00396017,0.00365874,-0
 .00515385,-0.00168543,-0.00013384,0.00001913,0.00018458,-0.00172711,0.
 00236928,-0.00056189,0.00002861,-0.00029933,0.00025055,0.00520399,-0.0
 0218329,0.00027830,-0.00162294,-0.00128541,-0.00607139,0.00521874,-0.0
 0013035,-0.00672744,-0.00089622,0.00375879,-0.00208680,-0.00357616,-0.
 00546033,0.00257430,0.00161681,0.00020438,0.00021232,0.00039863,0.0020
 6860,0.00797794,-0.00225044,-0.00011476,0.00004980,-0.00035736,0.00000
 668,0.00517888,-0.00140632,-0.00063245,0.00051682,0.00015429,0.0015353
 1,0.00051802,0.00046354,-0.00085164,-0.53467742,0.00124138,-0.00088594
 ,0.00052927,-0.00221620,0.00219106,-0.00196910,0.00009529,0.00044108,0
 .00033437,-0.00080285,-0.00304209,-0.00197133,0.00033429,-0.00030406,0
 .00033322,-0.00047276,0.00086725,0.53801913,-0.13456377,-0.04207534,-0
 .15310712,-0.00080519,0.00248435,-0.00370487,-0.00656016,0.00032217,0.
 00872693,0.00111996,-0.00169651,-0.00387251,-0.00556900,0.00276094,0.0
 0397722,0.00963337,0.01440806,0.02951318,-0.00116586,-0.00535054,0.004
 42082,0.00129375,0.00038454,0.00058374,0.00749761,0.00294840,0.0030391
 2,0.12909636,-0.01749344,-0.04780142,-0.05802971,0.00137569,0.00080279
 ,-0.00141288,0.00153726,-0.00924001,0.00330092,-0.00067123,-0.00145001
 ,-0.00178153,0.00071131,0.00233514,0.00268331,-0.01070267,-0.00674843,
 -0.02505285,-0.00328880,-0.00208768,0.00019630,-0.00031330,-0.00086384
 ,0.00223543,0.00323924,-0.00123925,0.00082208,0.02575137,0.06596528,-0
 .11103266,-0.07626188,-0.23301191,-0.00149155,0.00084806,-0.00563769,0
 .01631822,0.00438239,-0.00093575,-0.00115681,-0.00191964,-0.00605372,-
 0.00238057,0.00370532,0.00857722,-0.01483607,-0.00677127,-0.02018814,0
 .00033117,-0.00480238,0.00861074,0.00113813,0.00310238,-0.00058738,0.0
 0225066,0.00064176,-0.00196709,0.10982544,0.07681577,0.25069312,0.0007
 7264,0.00082665,-0.00104688,0.00028880,-0.00268966,-0.00178218,-0.0011
 8710,0.00163069,-0.00062789,-0.02231701,-0.04057453,0.04192511,-0.0009
 6712,-0.02064052,0.01337136,-0.00088529,-0.00123353,0.00046563,-0.0003
 6030,0.00057266,0.00213241,-0.00121495,0.00106241,0.00018898,0.0002223
 6,0.00018730,-0.00042979,0.00002293,-0.00014544,0.00103404,0.02562503,
 0.00035300,-0.00043761,-0.00029330,-0.00222601,0.00073706,0.00167571,0
 .00091412,-0.00237548,-0.00043106,-0.06570204,-0.38549876,0.22559460,0
 .00449679,0.00381783,-0.00934102,-0.00081939,-0.00012308,0.00014844,0.
 00127442,0.00079375,-0.00254975,0.00063771,0.00020041,0.00014508,0.000
 00487,-0.00014666,-0.00014059,0.00006257,0.00032744,0.00025948,0.06100
 397,0.38270512,-0.00045332,-0.00000802,-0.00078411,-0.00104537,0.00131
 788,-0.00144561,-0.00046292,-0.00192549,0.00058799,0.04892573,0.178864
 06,-0.14686466,0.00679246,0.03816133,-0.02022282,0.00002752,-0.0002328
 0,0.00055287,0.00165878,-0.00163243,-0.00059158,-0.00037369,0.00033994
 ,0.00055840,-0.00043645,-0.00004006,0.00033410,0.00059804,0.00022317,0
 .00050059,-0.05523079,-0.21506759,0.16737483\\0.00000806,-0.00000131,0
 .00000612,-0.00000506,-0.00000890,0.00000536,-0.00001534,-0.00001468,0
 .00001040,0.00000393,0.00000506,0.00001577,-0.00000049,-0.00000370,-0.
 00001755,-0.00000360,-0.00000259,-0.00000104,0.00001403,0.00000413,-0.
 00000699,-0.00000231,0.00000243,-0.00000040,0.00000284,0.00000568,-0.0
 0000753,-0.00000052,0.00000976,-0.00000165,-0.00000154,0.00000412,-0.0
 0000248\\\@


 A SOLDIER'S LIFE IS A LIFE OF HONOR, BUT A DOG WOULD NOT LEAD IT.
 -- PRINCE RUPERT, FOUNDER OF THE HUDSON'S BAY COMPANY
 Job cpu time:  0 days  0 hours 55 minutes 36.6 seconds.
 File lengths (MBytes):  RWF=   2937 Int=      0 D2E=      0 Chk=      8 Scr=      1
 Normal termination of Gaussian 03 at Thu May 13 17:49:16 2010.
