 Entering Gaussian System, Link 0=g03
 Initial command:
 /usr/local/g03-em64t/g03/l1.exe /usr/scratch/NQCaaa-bbb-depW2/Gau-16769.inp -scrdir=/usr/scratch/NQCaaa-bbb-depW2/
 Entering Link 1 = /usr/local/g03-em64t/g03/l1.exe PID=     16770.
  
 Copyright (c) 1988,1990,1992,1993,1995,1998,2003,2004, Gaussian, Inc.
                  All Rights Reserved.
  
 This is the Gaussian(R) 03 program.  It is based on the
 the Gaussian(R) 98 system (copyright 1998, Gaussian, Inc.),
 the Gaussian(R) 94 system (copyright 1995, Gaussian, Inc.),
 the Gaussian 92(TM) system (copyright 1992, Gaussian, Inc.),
 the Gaussian 90(TM) system (copyright 1990, Gaussian, Inc.),
 the Gaussian 88(TM) system (copyright 1988, Gaussian, Inc.),
 the Gaussian 86(TM) system (copyright 1986, Carnegie Mellon
 University), and the Gaussian 82(TM) system (copyright 1983,
 Carnegie Mellon University). Gaussian is a federally registered
 trademark of Gaussian, Inc.
  
 This software contains proprietary and confidential information,
 including trade secrets, belonging to Gaussian, Inc.
  
 This software is provided under written license and may be
 used, copied, transmitted, or stored only in accord with that
 written license.
  
 The following legend is applicable only to US Government
 contracts under FAR:
  
                    RESTRICTED RIGHTS LEGEND
  
 Use, reproduction and disclosure by the US Government is
 subject to restrictions as set forth in subparagraphs (a)
 and (c) of the Commercial Computer Software - Restricted
 Rights clause in FAR 52.227-19.
  
 Gaussian, Inc.
 340 Quinnipiac St., Bldg. 40, Wallingford CT 06492
  
  
 ---------------------------------------------------------------
 Warning -- This program may not be used in any manner that
 competes with the business of Gaussian, Inc. or will provide
 assistance to any competitor of Gaussian, Inc.  The licensee
 of this program is prohibited from giving any competitor of
 Gaussian, Inc. access to this program.  By using this program,
 the user acknowledges that Gaussian, Inc. is engaged in the
 business of creating and licensing software in the field of
 computational chemistry and represents and warrants to the
 licensee that it is not a competitor of Gaussian, Inc. and that
 it will not use this program in any manner prohibited above.
 ---------------------------------------------------------------
  

 Cite this work as:
 Gaussian 03, Revision D.01,
 M. J. Frisch, G. W. Trucks, H. B. Schlegel, G. E. Scuseria, 
 M. A. Robb, J. R. Cheeseman, J. A. Montgomery, Jr., T. Vreven, 
 K. N. Kudin, J. C. Burant, J. M. Millam, S. S. Iyengar, J. Tomasi, 
 V. Barone, B. Mennucci, M. Cossi, G. Scalmani, N. Rega, 
 G. A. Petersson, H. Nakatsuji, M. Hada, M. Ehara, K. Toyota, 
 R. Fukuda, J. Hasegawa, M. Ishida, T. Nakajima, Y. Honda, O. Kitao, 
 H. Nakai, M. Klene, X. Li, J. E. Knox, H. P. Hratchian, J. B. Cross, 
 V. Bakken, C. Adamo, J. Jaramillo, R. Gomperts, R. E. Stratmann, 
 O. Yazyev, A. J. Austin, R. Cammi, C. Pomelli, J. W. Ochterski, 
 P. Y. Ayala, K. Morokuma, G. A. Voth, P. Salvador, J. J. Dannenberg, 
 V. G. Zakrzewski, S. Dapprich, A. D. Daniels, M. C. Strain, 
 O. Farkas, D. K. Malick, A. D. Rabuck, K. Raghavachari, 
 J. B. Foresman, J. V. Ortiz, Q. Cui, A. G. Baboul, S. Clifford, 
 J. Cioslowski, B. B. Stefanov, G. Liu, A. Liashenko, P. Piskorz, 
 I. Komaromi, R. L. Martin, D. J. Fox, T. Keith, M. A. Al-Laham, 
 C. Y. Peng, A. Nanayakkara, M. Challacombe, P. M. W. Gill, 
 B. Johnson, W. Chen, M. W. Wong, C. Gonzalez, and J. A. Pople, 
 Gaussian, Inc., Wallingford CT, 2004.
 
 ******************************************
 Gaussian 03:  AM64L-G03RevD.01 13-Oct-2005
                 3-May-2007 
 ******************************************
 %chk=W2.chk
 %mem=64MW
 %nproc=1
 Will use up to    1 processors via shared memory.
 --------------------------
 # freq opt mp2/aug-cc-pvDZ
 --------------------------
 1/18=20,38=1/1,3;
 2/9=110,17=6,18=5,40=1/2;
 3/5=16,7=10,11=9,16=1,25=1,30=1/1,2,3;
 4//1;
 5/5=2,38=5/2;
 8/6=4,10=1/1;
 9/15=2,16=-3/6;
 10/5=1/2;
 6/7=2,8=2,9=2,10=2/1;
 7/12=2/1,2,3,16;
 1/18=20/3(3);
 2/9=110/2;
 6/7=2,8=2,9=2,10=2/1;
 99//99;
 2/9=110/2;
 3/5=16,7=10,11=9,16=1,25=1,30=1/1,2,3;
 4/5=5,16=3/1;
 5/5=2,38=5/2;
 8/6=4,10=1/1;
 9/15=2,16=-3/6;
 10/5=1/2;
 7/12=2/1,2,3,16;
 1/18=20/3(-8);
 2/9=110/2;
 6/7=2,8=2,9=2,10=2/1;
 99//99;
 -------------------
 Title Card Required
 -------------------
 Symbolic Z-matrix:
 Charge = -1 Multiplicity = 1
 O                    -0.13412   0.6684    1.02264 
 O                     0.13412  -0.6684   -1.02264 
 H                     0.0208   -0.02707   0.02042 
 H                     0.64627   0.98816   1.42824 
 H                    -0.22943  -1.53072  -1.01895 
 

 GradGradGradGradGradGradGradGradGradGradGradGradGradGradGradGradGradGrad
 Berny optimization.
 Initialization pass.
                           ----------------------------
                           !    Initial Parameters    !
                           ! (Angstroms and Degrees)  !
 --------------------------                            --------------------------
 ! Name  Definition              Value          Derivative Info.                !
 --------------------------------------------------------------------------------
 ! R1    R(1,3)                  1.2297         estimate D2E/DX2                !
 ! R2    R(1,4)                  0.9358         estimate D2E/DX2                !
 ! R3    R(2,3)                  1.2297         estimate D2E/DX2                !
 ! R4    R(2,5)                  0.9358         estimate D2E/DX2                !
 ! A1    A(3,1,4)              116.1952         estimate D2E/DX2                !
 ! A2    A(3,2,5)              116.195          estimate D2E/DX2                !
 ! A3    A(1,3,2)              176.2928         estimate D2E/DX2                !
 ! D1    D(4,1,3,2)           -119.4043         estimate D2E/DX2                !
 ! D2    D(5,2,3,1)           -119.3948         estimate D2E/DX2                !
 --------------------------------------------------------------------------------
 Trust Radius=3.00D-01 FncErr=1.00D-07 GrdErr=1.00D-07
 Number of steps in this run=  20 maximum allowed number of steps= 100.
 GradGradGradGradGradGradGradGradGradGradGradGradGradGradGradGradGradGrad

                          Input orientation:                          
 ---------------------------------------------------------------------
 Center     Atomic     Atomic              Coordinates (Angstroms)
 Number     Number      Type              X           Y           Z
 ---------------------------------------------------------------------
    1          8             0       -0.134124    0.668396    1.022637
    2          8             0        0.134124   -0.668396   -1.022637
    3          1             0        0.020799   -0.027068    0.020415
    4          1             0        0.646273    0.988158    1.428243
    5          1             0       -0.229434   -1.530722   -1.018947
 ---------------------------------------------------------------------
                    Distance matrix (angstroms):
                    1          2          3          4          5
     1  O    0.000000
     2  O    2.458072   0.000000
     3  H    1.229683   1.229675   0.000000
     4  H    0.935833   3.002213   1.844961   0.000000
     5  H    3.002211   0.935839   1.844957   3.619442   0.000000
 Stoichiometry    H3O2(1-)
 Framework group  C1[X(H3O2)]
 Deg. of freedom     9
 Full point group                 C1
 Largest Abelian subgroup         C1      NOp   1
 Largest concise Abelian subgroup C1      NOp   1
                         Standard orientation:                         
 ---------------------------------------------------------------------
 Center     Atomic     Atomic              Coordinates (Angstroms)
 Number     Number      Type              X           Y           Z
 ---------------------------------------------------------------------
    1          8             0       -1.224707    0.103056    0.044056
    2          8             0        1.224707   -0.103057    0.044055
    3          1             0        0.000004   -0.000004    0.004281
    4          1             0       -1.710775   -0.590201   -0.354588
    5          1             0        1.710771    0.590215   -0.354580
 ---------------------------------------------------------------------
 Rotational constants (GHZ):    398.6557362      9.3142907      9.2015921
 Standard basis: Aug-CC-pVDZ (5D, 7F)
 There are    73 symmetry adapted basis functions of A   symmetry.
 Integral buffers will be    131072 words long.
 Raffenetti 1 integral format.
 Two-electron integral symmetry is turned on.
    73 basis functions,   119 primitive gaussians,    77 cartesian basis functions
    10 alpha electrons       10 beta electrons
       nuclear repulsion energy        33.2508153892 Hartrees.
 NAtoms=    5 NActive=    5 NUniq=    5 SFac= 7.50D-01 NAtFMM=   80 NAOKFM=F Big=F
 One-electron integrals computed using PRISM.
 NBasis=    73 RedAO= T  NBF=    73
 NBsUse=    73 1.00D-06 NBFU=    73
 Harris functional with IExCor=  205 diagonalized for initial guess.
 ExpMin= 2.97D-02 ExpMax= 1.17D+04 ExpMxC= 4.01D+02 IAcc=3 IRadAn=         5 AccDes= 0.00D+00
 HarFok:  IExCor= 205 AccDes= 0.00D+00 IRadAn=         5 IDoV=1
 ScaDFX=  1.000000  1.000000  1.000000  1.000000
 Initial guess orbital symmetries:
       Occupied  (A) (A) (A) (A) (A) (A) (A) (A) (A) (A)
       Virtual   (A) (A) (A) (A) (A) (A) (A) (A) (A) (A) (A) (A)
                 (A) (A) (A) (A) (A) (A) (A) (A) (A) (A) (A) (A)
                 (A) (A) (A) (A) (A) (A) (A) (A) (A) (A) (A) (A)
                 (A) (A) (A) (A) (A) (A) (A) (A) (A) (A) (A) (A)
                 (A) (A) (A) (A) (A) (A) (A) (A) (A) (A) (A) (A)
                 (A) (A) (A)
 The electronic state of the initial guess is 1-A.
 Requested convergence on RMS density matrix=1.00D-08 within 128 cycles.
 Requested convergence on MAX density matrix=1.00D-06.
 Requested convergence on             energy=1.00D-06.
 No special actions if energy rises.
 Keep R1 integrals in memory in canonical form, NReq=     5606541.
 SCF Done:  E(RHF) =  -151.468257655     A.U. after   11 cycles
             Convg  =    0.8865D-08             -V/T =  2.0010
             S**2   =   0.0000
 ExpMin= 2.97D-02 ExpMax= 1.17D+04 ExpMxC= 4.01D+02 IAcc=3 IRadAn=         5 AccDes= 0.00D+00
 HarFok:  IExCor= 205 AccDes= 0.00D+00 IRadAn=         5 IDoV=1
 ScaDFX=  1.000000  1.000000  1.000000  1.000000
 Range of M.O.s used for correlation:     3    73
 NBasis=    73 NAE=    10 NBE=    10 NFC=     2 NFV=     0
 NROrb=     71 NOA=     8 NOB=     8 NVA=    63 NVB=    63
 Fully direct method using O(ONN) memory.
 JobTyp=1 Pass  1:  I=   3 to  10 NPSUse=  1 ParTrn=F ParDer=F DoDerP=T.
 Spin components of T(2) and E(2):
     alpha-alpha T2 =       0.1903840853D-01 E2=     -0.6243928732D-01
     alpha-beta  T2 =       0.9915998592D-01 E2=     -0.3421379341D+00
     beta-beta   T2 =       0.1903840853D-01 E2=     -0.6243928732D-01
 ANorm=    0.1066413055D+01
 E2 =    -0.4670165088D+00 EUMP2 =    -0.15193527416413D+03
 DoAtom=TTTTT
          Differentiating once with respect to electric field.
                with respect to dipole field.
          Differentiating once with respect to nuclear coordinates.
          Store integrals in memory, NReq=     5331141.
          There are   1 degrees of freedom in the 1st order CPHF.
     1 vectors were produced by pass  0.
 AX will form   1 AO Fock derivatives at one time.
     1 vectors were produced by pass  1.
     1 vectors were produced by pass  2.
     1 vectors were produced by pass  3.
     1 vectors were produced by pass  4.
     1 vectors were produced by pass  5.
     1 vectors were produced by pass  6.
     1 vectors were produced by pass  7.
     1 vectors were produced by pass  8.
     1 vectors were produced by pass  9.
     1 vectors were produced by pass 10.
     1 vectors were produced by pass 11.
 Inv2:  IOpt= 1 Iter= 1 AM= 2.95D-16 Conv= 1.00D-12.
 Inverted reduced A of dimension   12 with in-core refinement.
 End of Minotr Frequency-dependent properties file   721 does not exist.

 **********************************************************************

            Population analysis using the SCF density.

 **********************************************************************

 Orbital symmetries:
       Occupied  (A) (A) (A) (A) (A) (A) (A) (A) (A) (A)
       Virtual   (A) (A) (A) (A) (A) (A) (A) (A) (A) (A) (A) (A)
                 (A) (A) (A) (A) (A) (A) (A) (A) (A) (A) (A) (A)
                 (A) (A) (A) (A) (A) (A) (A) (A) (A) (A) (A) (A)
                 (A) (A) (A) (A) (A) (A) (A) (A) (A) (A) (A) (A)
                 (A) (A) (A) (A) (A) (A) (A) (A) (A) (A) (A) (A)
                 (A) (A) (A)
 The electronic state is 1-A.
 Alpha  occ. eigenvalues --  -20.27151 -20.27149  -1.04380  -1.00710  -0.44913
 Alpha  occ. eigenvalues --   -0.35112  -0.27595  -0.21275  -0.20018  -0.18172
 Alpha virt. eigenvalues --    0.16740   0.18072   0.22778   0.34648   0.36203
 Alpha virt. eigenvalues --    0.37977   0.39111   0.40395   0.40983   0.47940
 Alpha virt. eigenvalues --    0.48881   0.54083   0.55746   0.60599   0.61029
 Alpha virt. eigenvalues --    0.66238   0.67799   0.75199   0.81832   0.81931
 Alpha virt. eigenvalues --    0.86849   0.91280   1.07611   1.08114   1.17284
 Alpha virt. eigenvalues --    1.17606   1.33532   1.34013   1.36248   1.37880
 Alpha virt. eigenvalues --    1.44797   1.47035   1.62206   1.69291   1.69324
 Alpha virt. eigenvalues --    1.73414   1.80806   1.86731   1.90037   1.90590
 Alpha virt. eigenvalues --    2.23216   2.31528   2.35547   2.36210   2.54742
 Alpha virt. eigenvalues --    2.69516   2.84089   2.84402   2.95518   3.09125
 Alpha virt. eigenvalues --    3.10171   3.22127   3.30282   3.93882   3.95541
 Alpha virt. eigenvalues --    3.96018   3.96530   4.00664   4.02944   4.04117
 Alpha virt. eigenvalues --    4.52426   4.55716   4.83294
          Condensed to atoms (all electrons):
              1          2          3          4          5
     1  O    8.472699  -0.143653   0.114203   0.357150   0.002218
     2  O   -0.143653   8.472695   0.114207   0.002217   0.357148
     3  H    0.114203   0.114207   0.196681  -0.022909  -0.022909
     4  H    0.357150   0.002217  -0.022909   0.675253  -0.003961
     5  H    0.002218   0.357148  -0.022909  -0.003961   0.675248
 Mulliken atomic charges:
              1
     1  O   -0.802616
     2  O   -0.802615
     3  H    0.620727
     4  H   -0.007751
     5  H   -0.007745
 Sum of Mulliken charges=  -1.00000
 Atomic charges with hydrogens summed into heavy atoms:
              1
     1  O   -0.810368
     2  O   -0.189632
     3  H    0.000000
     4  H    0.000000
     5  H    0.000000
 Sum of Mulliken charges=  -1.00000
 Electronic spatial extent (au):  <R**2>=   151.5708
 Charge=    -1.0000 electrons
 Dipole moment (field-independent basis, Debye):
    X=     0.0000    Y=     0.0000    Z=    -1.4012  Tot=     1.4012
 Quadrupole moment (field-independent basis, Debye-Ang):
   XX=   -23.2745   YY=   -15.1731   ZZ=   -16.5153
   XY=     5.0630   XZ=     0.0000   YZ=     0.0000
 Traceless Quadrupole moment (field-independent basis, Debye-Ang):
   XX=    -4.9536   YY=     3.1479   ZZ=     1.8057
   XY=     5.0630   XZ=     0.0000   YZ=     0.0000
 Octapole moment (field-independent basis, Debye-Ang**2):
  XXX=     0.0000  YYY=     0.0000  ZZZ=    -0.8431  XYY=     0.0001
  XXY=     0.0001  XXZ=    -5.0352  XZZ=     0.0000  YZZ=     0.0000
  YYZ=    -0.5118  XYZ=    -1.8415
 Hexadecapole moment (field-independent basis, Debye-Ang**3):
 XXXX=  -170.1931 YYYY=   -20.3376 ZZZZ=   -20.4201 XXXY=    17.9142
 XXXZ=     0.0002 YYYX=     4.5909 YYYZ=     0.0000 ZZZX=     0.0001
 ZZZY=     0.0000 XXYY=   -29.6349 XXZZ=   -32.5274 YYZZ=    -6.6902
 XXYZ=     0.0000 YYXZ=     0.0000 ZZXY=     1.5834
 N-N= 3.325081538924D+01 E-N=-4.322317818933D+02  KE= 1.513231544309D+02
 ***** Axes restored to original set *****
 -------------------------------------------------------------------
 Center     Atomic                   Forces (Hartrees/Bohr)
 Number     Number              X              Y              Z
 -------------------------------------------------------------------
    1          8          -0.034889440   -0.011611001   -0.013843673
    2          8           0.016643532    0.035350231   -0.004069694
    3          1           0.001721703   -0.002241815    0.001690903
    4          1           0.030911430    0.007871286    0.009729696
    5          1          -0.014387225   -0.029368702    0.006492767
 -------------------------------------------------------------------
 Cartesian Forces:  Max     0.035350231 RMS     0.018835433

 GradGradGradGradGradGradGradGradGradGradGradGradGradGradGradGradGradGrad
 Berny optimization.
 Internal  Forces:  Max     0.032683767 RMS     0.016542646
 Search for a local minimum.
 Step number   1 out of a maximum of  20
 All quantities printed in internal units (Hartrees-Bohrs-Radians)
 Second derivative matrix not updated -- first step.
 The second derivative matrix:
                          R1        R2        R3        R4        A1
           R1           0.22620
           R2           0.00000   0.61014
           R3           0.00000   0.00000   0.22620
           R4           0.00000   0.00000   0.00000   0.61012
           A1           0.00000   0.00000   0.00000   0.00000   0.16000
           A2           0.00000   0.00000   0.00000   0.00000   0.00000
           A3           0.00000   0.00000   0.00000   0.00000   0.00000
           D1           0.00000   0.00000   0.00000   0.00000   0.00000
           D2           0.00000   0.00000   0.00000   0.00000   0.00000
                          A2        A3        D1        D2
           A2           0.16000
           A3           0.00000   0.25000
           D1           0.00000   0.00000   0.00230
           D2           0.00000   0.00000   0.00000   0.00230
     Eigenvalues ---    0.00230   0.00230   0.16000   0.16000   0.22620
     Eigenvalues ---    0.22620   0.25000   0.61012   0.61014
 RFO step:  Lambda=-5.40701076D-03.
 Linear search not attempted -- first point.
 Iteration  1 RMS(Cart)=  0.06849759 RMS(Int)=  0.00321392
 Iteration  2 RMS(Cart)=  0.00392900 RMS(Int)=  0.00000863
 Iteration  3 RMS(Cart)=  0.00000878 RMS(Int)=  0.00000000
 Iteration  4 RMS(Cart)=  0.00000000 RMS(Int)=  0.00000000
 Variable       Old X    -DE/DX   Delta X   Delta X   Delta X     New X
                                 (Linear)    (Quad)   (Total)
    R1        2.32376  -0.00497   0.00000  -0.02145  -0.02145   2.30232
    R2        1.76847   0.03268   0.00000   0.05310   0.05310   1.82157
    R3        2.32375  -0.00497   0.00000  -0.02145  -0.02145   2.30230
    R4        1.76848   0.03268   0.00000   0.05309   0.05309   1.82157
    A1        2.02799  -0.01171   0.00000  -0.07078  -0.07078   1.95721
    A2        2.02798  -0.01171   0.00000  -0.07078  -0.07078   1.95720
    A3        3.07689   0.00174   0.00000   0.00682   0.00682   3.08371
    D1       -2.08400  -0.00046   0.00000  -0.05948  -0.05948  -2.14348
    D2       -2.08383  -0.00046   0.00000  -0.05948  -0.05948  -2.14332
         Item               Value     Threshold  Converged?
 Maximum Force            0.032684     0.000450     NO 
 RMS     Force            0.016543     0.000300     NO 
 Maximum Displacement     0.117633     0.001800     NO 
 RMS     Displacement     0.071120     0.001200     NO 
 Predicted change in Energy=-2.767582D-03
 GradGradGradGradGradGradGradGradGradGradGradGradGradGradGradGradGradGrad

                          Input orientation:                          
 ---------------------------------------------------------------------
 Center     Atomic     Atomic              Coordinates (Angstroms)
 Number     Number      Type              X           Y           Z
 ---------------------------------------------------------------------
    1          8             0       -0.164543    0.672228    1.002473
    2          8             0        0.134362   -0.632946   -1.032108
    3          1             0        0.003345   -0.004352    0.003278
    4          1             0        0.669542    0.927420    1.412767
    5          1             0       -0.205068   -1.531981   -0.956698
 ---------------------------------------------------------------------
                    Distance matrix (angstroms):
                    1          2          3          4          5
     1  O    0.000000
     2  O    2.435641   0.000000
     3  H    1.218334   1.218327   0.000000
     4  H    0.963931   2.949335   1.816226   0.000000
     5  H    2.949327   0.963931   1.816216   3.525331   0.000000
 Stoichiometry    H3O2(1-)
 Framework group  C1[X(H3O2)]
 Deg. of freedom     9
 Full point group                 C1
 Largest Abelian subgroup         C1      NOp   1
 Largest concise Abelian subgroup C1      NOp   1
                         Standard orientation:                         
 ---------------------------------------------------------------------
 Center     Atomic     Atomic              Coordinates (Angstroms)
 Number     Number      Type              X           Y           Z
 ---------------------------------------------------------------------
    1          8             0        1.213361    0.104120   -0.051652
    2          8             0       -1.213361   -0.104121   -0.051650
    3          1             0       -0.000004   -0.000003   -0.016394
    4          1             0        1.653263   -0.611326    0.421407
    5          1             0       -1.653255    0.611336    0.421402
 ---------------------------------------------------------------------
 Rotational constants (GHZ):    349.3539154      9.5159833      9.4100527
 Standard basis: Aug-CC-pVDZ (5D, 7F)
 There are    73 symmetry adapted basis functions of A   symmetry.
 Integral buffers will be    131072 words long.
 Raffenetti 1 integral format.
 Two-electron integral symmetry is turned on.
    73 basis functions,   119 primitive gaussians,    77 cartesian basis functions
    10 alpha electrons       10 beta electrons
       nuclear repulsion energy        33.2416871386 Hartrees.
 NAtoms=    5 NActive=    5 NUniq=    5 SFac= 7.50D-01 NAtFMM=   80 NAOKFM=F Big=F
 One-electron integrals computed using PRISM.
 NBasis=    73 RedAO= T  NBF=    73
 NBsUse=    73 1.00D-06 NBFU=    73
 Initial guess read from the read-write file:
 Initial guess orbital symmetries:
       Occupied  (A) (A) (A) (A) (A) (A) (A) (A) (A) (A)
       Virtual   (A) (A) (A) (A) (A) (A) (A) (A) (A) (A) (A) (A)
                 (A) (A) (A) (A) (A) (A) (A) (A) (A) (A) (A) (A)
                 (A) (A) (A) (A) (A) (A) (A) (A) (A) (A) (A) (A)
                 (A) (A) (A) (A) (A) (A) (A) (A) (A) (A) (A) (A)
                 (A) (A) (A) (A) (A) (A) (A) (A) (A) (A) (A) (A)
                 (A) (A) (A)
 Harris functional with IExCor=  205 diagonalized for initial guess.
 ExpMin= 2.97D-02 ExpMax= 1.17D+04 ExpMxC= 4.01D+02 IAcc=3 IRadAn=         5 AccDes= 0.00D+00
 HarFok:  IExCor= 205 AccDes= 0.00D+00 IRadAn=         5 IDoV=1
 ScaDFX=  1.000000  1.000000  1.000000  1.000000
 Requested convergence on RMS density matrix=1.00D-08 within 128 cycles.
 Requested convergence on MAX density matrix=1.00D-06.
 Requested convergence on             energy=1.00D-06.
 No special actions if energy rises.
 Keep R1 integrals in memory in canonical form, NReq=     5606541.
 SCF Done:  E(RHF) =  -151.469110384     A.U. after   13 cycles
             Convg  =    0.4615D-08             -V/T =  2.0015
             S**2   =   0.0000
 ExpMin= 2.97D-02 ExpMax= 1.17D+04 ExpMxC= 4.01D+02 IAcc=3 IRadAn=         5 AccDes= 0.00D+00
 HarFok:  IExCor= 205 AccDes= 0.00D+00 IRadAn=         5 IDoV=1
 ScaDFX=  1.000000  1.000000  1.000000  1.000000
 Range of M.O.s used for correlation:     3    73
 NBasis=    73 NAE=    10 NBE=    10 NFC=     2 NFV=     0
 NROrb=     71 NOA=     8 NOB=     8 NVA=    63 NVB=    63
 Fully direct method using O(ONN) memory.
 JobTyp=1 Pass  1:  I=   3 to  10 NPSUse=  1 ParTrn=F ParDer=F DoDerP=T.
 Spin components of T(2) and E(2):
     alpha-alpha T2 =       0.1929554395D-01 E2=     -0.6274520286D-01
     alpha-beta  T2 =       0.1006453624D+00 E2=     -0.3440123351D+00
     beta-beta   T2 =       0.1929554395D-01 E2=     -0.6274520286D-01
 ANorm=    0.1067350200D+01
 E2 =    -0.4695027409D+00 EUMP2 =    -0.15193861312466D+03
 DoAtom=TTTTT
          Differentiating once with respect to electric field.
                with respect to dipole field.
          Differentiating once with respect to nuclear coordinates.
          Store integrals in memory, NReq=     5331141.
          There are   1 degrees of freedom in the 1st order CPHF.
     1 vectors were produced by pass  0.
 AX will form   1 AO Fock derivatives at one time.
     1 vectors were produced by pass  1.
     1 vectors were produced by pass  2.
     1 vectors were produced by pass  3.
     1 vectors were produced by pass  4.
     1 vectors were produced by pass  5.
     1 vectors were produced by pass  6.
     1 vectors were produced by pass  7.
     1 vectors were produced by pass  8.
     1 vectors were produced by pass  9.
     1 vectors were produced by pass 10.
     1 vectors were produced by pass 11.
 Inv2:  IOpt= 1 Iter= 1 AM= 3.14D-16 Conv= 1.00D-12.
 Inverted reduced A of dimension   12 with in-core refinement.
 End of Minotr Frequency-dependent properties file   721 does not exist.
 ***** Axes restored to original set *****
 -------------------------------------------------------------------
 Center     Atomic                   Forces (Hartrees/Bohr)
 Number     Number              X              Y              Z
 -------------------------------------------------------------------
    1          8          -0.007156100    0.002028797    0.003271849
    2          8           0.003556485    0.002656463   -0.006806217
    3          1           0.001354372   -0.001763287    0.001329870
    4          1           0.003823560   -0.001966475   -0.002318505
    5          1          -0.001578316   -0.000955498    0.004523002
 -------------------------------------------------------------------
 Cartesian Forces:  Max     0.007156100 RMS     0.003526060

 GradGradGradGradGradGradGradGradGradGradGradGradGradGradGradGradGradGrad
 Berny optimization.
 Internal  Forces:  Max     0.008258030 RMS     0.004075410
 Search for a local minimum.
 Step number   2 out of a maximum of  20
 All quantities printed in internal units (Hartrees-Bohrs-Radians)
 Update second derivatives using D2CorX and points  1  2
 Trust test= 1.21D+00 RLast= 1.54D-01 DXMaxT set to 4.24D-01
 The second derivative matrix:
                          R1        R2        R3        R4        A1
           R1           0.23139
           R2          -0.01797   0.64751
           R3           0.00519  -0.01797   0.23139
           R4          -0.01797   0.03736  -0.01797   0.64748
           A1          -0.00507   0.04312  -0.00507   0.04311   0.13865
           A2          -0.00507   0.04312  -0.00507   0.04311  -0.02135
           A3           0.00154  -0.01033   0.00154  -0.01033   0.00364
           D1          -0.00009   0.00066  -0.00009   0.00066  -0.00027
           D2          -0.00009   0.00066  -0.00009   0.00066  -0.00027
                          A2        A3        D1        D2
           A2           0.13865
           A3           0.00364   0.24945
           D1          -0.00027   0.00004   0.00230
           D2          -0.00027   0.00004   0.00000   0.00230
     Eigenvalues ---    0.00229   0.00230   0.10396   0.16000   0.22620
     Eigenvalues ---    0.23376   0.24943   0.61013   0.70105
 RFO step:  Lambda=-1.41875875D-03.
 Quartic linear search produced a step of  0.37594.
 Iteration  1 RMS(Cart)=  0.14565183 RMS(Int)=  0.03219294
 Iteration  2 RMS(Cart)=  0.03622681 RMS(Int)=  0.00141664
 Iteration  3 RMS(Cart)=  0.00137489 RMS(Int)=  0.00000149
 Iteration  4 RMS(Cart)=  0.00000212 RMS(Int)=  0.00000000
 Iteration  5 RMS(Cart)=  0.00000000 RMS(Int)=  0.00000000
 Variable       Old X    -DE/DX   Delta X   Delta X   Delta X     New X
                                 (Linear)    (Quad)   (Total)
    R1        2.30232   0.00128  -0.00806   0.01113   0.00307   2.30538
    R2        1.82157   0.00180   0.01996  -0.00528   0.01468   1.83625
    R3        2.30230   0.00128  -0.00806   0.01113   0.00306   2.30537
    R4        1.82157   0.00180   0.01996  -0.00528   0.01468   1.83625
    A1        1.95721  -0.00826  -0.02661  -0.05887  -0.08548   1.87173
    A2        1.95720  -0.00826  -0.02661  -0.05887  -0.08548   1.87172
    A3        3.08371   0.00172   0.00256   0.00824   0.01080   3.09451
    D1       -2.14348  -0.00043  -0.02236  -0.22177  -0.24413  -2.38761
    D2       -2.14332  -0.00043  -0.02236  -0.22177  -0.24413  -2.38745
         Item               Value     Threshold  Converged?
 Maximum Force            0.008258     0.000450     NO 
 RMS     Force            0.004075     0.000300     NO 
 Maximum Displacement     0.311945     0.001800     NO 
 RMS     Displacement     0.174105     0.001200     NO 
 Predicted change in Energy=-8.015530D-04
 GradGradGradGradGradGradGradGradGradGradGradGradGradGradGradGradGradGrad

                          Input orientation:                          
 ---------------------------------------------------------------------
 Center     Atomic     Atomic              Coordinates (Angstroms)
 Number     Number      Type              X           Y           Z
 ---------------------------------------------------------------------
    1          8             0       -0.174969    0.743339    0.956845
    2          8             0        0.063993   -0.598896   -1.065812
    3          1             0       -0.040471    0.052677   -0.039744
    4          1             0        0.683288    0.762346    1.412077
    5          1             0       -0.094203   -1.529099   -0.833655
 ---------------------------------------------------------------------
                    Distance matrix (angstroms):
                    1          2          3          4          5
     1  O    0.000000
     2  O    2.439229   0.000000
     3  H    1.219957   1.219949   0.000000
     4  H    0.971701   2.894208   1.770662   0.000000
     5  H    2.894199   0.971700   1.770648   3.301292   0.000000
 Stoichiometry    H3O2(1-)
 Framework group  C1[X(H3O2)]
 Deg. of freedom     9
 Full point group                 C1
 Largest Abelian subgroup         C1      NOp   1
 Largest concise Abelian subgroup C1      NOp   1
                         Standard orientation:                         
 ---------------------------------------------------------------------
 Center     Atomic     Atomic              Coordinates (Angstroms)
 Number     Number      Type              X           Y           Z
 ---------------------------------------------------------------------
    1          8             0        1.216662   -0.071983   -0.084818
    2          8             0       -1.216662   -0.071985    0.084815
    3          1             0       -0.000004   -0.043265    0.000002
    4          1             0        1.563975    0.597497    0.527860
    5          1             0       -1.563966    0.597515   -0.527843
 ---------------------------------------------------------------------
 Rotational constants (GHZ):    317.8961213      9.5218889      9.5021474
 Standard basis: Aug-CC-pVDZ (5D, 7F)
 There are    73 symmetry adapted basis functions of A   symmetry.
 Integral buffers will be    131072 words long.
 Raffenetti 1 integral format.
 Two-electron integral symmetry is turned on.
    73 basis functions,   119 primitive gaussians,    77 cartesian basis functions
    10 alpha electrons       10 beta electrons
       nuclear repulsion energy        33.2216179688 Hartrees.
 NAtoms=    5 NActive=    5 NUniq=    5 SFac= 7.50D-01 NAtFMM=   80 NAOKFM=F Big=F
 One-electron integrals computed using PRISM.
 NBasis=    73 RedAO= T  NBF=    73
 NBsUse=    73 1.00D-06 NBFU=    73
 Initial guess read from the read-write file:
 Initial guess orbital symmetries:
       Occupied  (A) (A) (A) (A) (A) (A) (A) (A) (A) (A)
       Virtual   (A) (A) (A) (A) (A) (A) (A) (A) (A) (A) (A) (A)
                 (A) (A) (A) (A) (A) (A) (A) (A) (A) (A) (A) (A)
                 (A) (A) (A) (A) (A) (A) (A) (A) (A) (A) (A) (A)
                 (A) (A) (A) (A) (A) (A) (A) (A) (A) (A) (A) (A)
                 (A) (A) (A) (A) (A) (A) (A) (A) (A) (A) (A) (A)
                 (A) (A) (A)
 Harris functional with IExCor=  205 diagonalized for initial guess.
 ExpMin= 2.97D-02 ExpMax= 1.17D+04 ExpMxC= 4.01D+02 IAcc=3 IRadAn=         5 AccDes= 0.00D+00
 HarFok:  IExCor= 205 AccDes= 0.00D+00 IRadAn=         5 IDoV=1
 ScaDFX=  1.000000  1.000000  1.000000  1.000000
 Requested convergence on RMS density matrix=1.00D-08 within 128 cycles.
 Requested convergence on MAX density matrix=1.00D-06.
 Requested convergence on             energy=1.00D-06.
 No special actions if energy rises.
 Keep R1 integrals in memory in canonical form, NReq=     5606541.
 SCF Done:  E(RHF) =  -151.469010097     A.U. after   13 cycles
             Convg  =    0.8411D-08             -V/T =  2.0017
             S**2   =   0.0000
 ExpMin= 2.97D-02 ExpMax= 1.17D+04 ExpMxC= 4.01D+02 IAcc=3 IRadAn=         5 AccDes= 0.00D+00
 HarFok:  IExCor= 205 AccDes= 0.00D+00 IRadAn=         5 IDoV=1
 ScaDFX=  1.000000  1.000000  1.000000  1.000000
 Range of M.O.s used for correlation:     3    73
 NBasis=    73 NAE=    10 NBE=    10 NFC=     2 NFV=     0
 NROrb=     71 NOA=     8 NOB=     8 NVA=    63 NVB=    63
 Fully direct method using O(ONN) memory.
 JobTyp=1 Pass  1:  I=   3 to  10 NPSUse=  1 ParTrn=F ParDer=F DoDerP=T.
 Spin components of T(2) and E(2):
     alpha-alpha T2 =       0.1940320182D-01 E2=     -0.6287804381D-01
     alpha-beta  T2 =       0.1012853074D+00 E2=     -0.3448536691D+00
     beta-beta   T2 =       0.1940320182D-01 E2=     -0.6287804381D-01
 ANorm=    0.1067750772D+01
 E2 =    -0.4706097567D+00 EUMP2 =    -0.15193961985415D+03
 DoAtom=TTTTT
          Differentiating once with respect to electric field.
                with respect to dipole field.
          Differentiating once with respect to nuclear coordinates.
          Store integrals in memory, NReq=     5331141.
          There are   1 degrees of freedom in the 1st order CPHF.
     1 vectors were produced by pass  0.
 AX will form   1 AO Fock derivatives at one time.
     1 vectors were produced by pass  1.
     1 vectors were produced by pass  2.
     1 vectors were produced by pass  3.
     1 vectors were produced by pass  4.
     1 vectors were produced by pass  5.
     1 vectors were produced by pass  6.
     1 vectors were produced by pass  7.
     1 vectors were produced by pass  8.
     1 vectors were produced by pass  9.
     1 vectors were produced by pass 10.
     1 vectors were produced by pass 11.
 Inv2:  IOpt= 1 Iter= 1 AM= 4.60D-16 Conv= 1.00D-12.
 Inverted reduced A of dimension   12 with in-core refinement.
 End of Minotr Frequency-dependent properties file   721 does not exist.
 ***** Axes restored to original set *****
 -------------------------------------------------------------------
 Center     Atomic                   Forces (Hartrees/Bohr)
 Number     Number              X              Y              Z
 -------------------------------------------------------------------
    1          8           0.001931987    0.002037928    0.005751227
    2          8           0.000761550   -0.005542375   -0.003106625
    3          1           0.000582399   -0.000758235    0.000571715
    4          1          -0.003450545   -0.001034955   -0.003960138
    5          1           0.000174609    0.005297636    0.000743821
 -------------------------------------------------------------------
 Cartesian Forces:  Max     0.005751227 RMS     0.003060077

 GradGradGradGradGradGradGradGradGradGradGradGradGradGradGradGradGradGrad
 Berny optimization.
 Internal  Forces:  Max     0.004923231 RMS     0.003163660
 Search for a local minimum.
 Step number   3 out of a maximum of  20
 All quantities printed in internal units (Hartrees-Bohrs-Radians)
 Update second derivatives using D2CorX and points  1  2  3
 Trust test= 1.26D+00 RLast= 3.67D-01 DXMaxT set to 6.00D-01
 The second derivative matrix:
                          R1        R2        R3        R4        A1
           R1           0.23485
           R2          -0.03574   0.71603
           R3           0.00866  -0.03574   0.23486
           R4          -0.03573   0.10587  -0.03573   0.71597
           A1          -0.00024   0.04517  -0.00024   0.04516   0.11357
           A2          -0.00024   0.04517  -0.00024   0.04516  -0.04643
           A3           0.00179  -0.01685   0.00179  -0.01684   0.01018
           D1           0.00139  -0.00569   0.00139  -0.00569   0.00030
           D2           0.00139  -0.00569   0.00139  -0.00569   0.00030
                          A2        A3        D1        D2
           A2           0.11357
           A3           0.01018   0.24826
           D1           0.00030   0.00044   0.00286
           D2           0.00030   0.00044   0.00056   0.00286
     Eigenvalues ---    0.00230   0.00318   0.05468   0.16000   0.22620
     Eigenvalues ---    0.23538   0.24898   0.61013   0.84195
 RFO step:  Lambda=-6.90669426D-04.
 Quartic linear search produced a step of  0.14187.
 Iteration  1 RMS(Cart)=  0.09757368 RMS(Int)=  0.01153340
 Iteration  2 RMS(Cart)=  0.01040545 RMS(Int)=  0.00007930
 Iteration  3 RMS(Cart)=  0.00012010 RMS(Int)=  0.00000001
 Iteration  4 RMS(Cart)=  0.00000001 RMS(Int)=  0.00000000
 Variable       Old X    -DE/DX   Delta X   Delta X   Delta X     New X
                                 (Linear)    (Quad)   (Total)
    R1        2.30538   0.00220   0.00044   0.00770   0.00814   2.31352
    R2        1.83625  -0.00492   0.00208   0.00238   0.00446   1.84071
    R3        2.30537   0.00220   0.00043   0.00770   0.00814   2.31351
    R4        1.83625  -0.00492   0.00208   0.00238   0.00446   1.84071
    A1        1.87173  -0.00381  -0.01213  -0.05290  -0.06503   1.80670
    A2        1.87172  -0.00381  -0.01213  -0.05290  -0.06503   1.80669
    A3        3.09451   0.00148   0.00153   0.00962   0.01115   3.10566
    D1       -2.38761   0.00060  -0.03463   0.20605   0.17142  -2.21620
    D2       -2.38745   0.00060  -0.03463   0.20605   0.17141  -2.21604
         Item               Value     Threshold  Converged?
 Maximum Force            0.004923     0.000450     NO 
 RMS     Force            0.003164     0.000300     NO 
 Maximum Displacement     0.147138     0.001800     NO 
 RMS     Displacement     0.100903     0.001200     NO 
 Predicted change in Energy=-3.729348D-04
 GradGradGradGradGradGradGradGradGradGradGradGradGradGradGradGradGradGrad

                          Input orientation:                          
 ---------------------------------------------------------------------
 Center     Atomic     Atomic              Coordinates (Angstroms)
 Number     Number      Type              X           Y           Z
 ---------------------------------------------------------------------
    1          8             0       -0.207907    0.684094    0.995542
    2          8             0        0.141855   -0.598123   -1.060398
    3          1             0       -0.021524    0.028015   -0.021141
    4          1             0        0.689600    0.811591    1.351944
    5          1             0       -0.164386   -1.495208   -0.836236
 ---------------------------------------------------------------------
                    Distance matrix (angstroms):
                    1          2          3          4          5
     1  O    0.000000
     2  O    2.448123   0.000000
     3  H    1.224264   1.224255   0.000000
     4  H    0.974062   2.847229   1.733508   0.000000
     5  H    2.847220   0.974061   1.733494   3.292225   0.000000
 Stoichiometry    H3O2(1-)
 Framework group  C1[X(H3O2)]
 Deg. of freedom     9
 Full point group                 C1
 Largest Abelian subgroup         C1      NOp   1
 Largest concise Abelian subgroup C1      NOp   1
                         Standard orientation:                         
 ---------------------------------------------------------------------
 Center     Atomic     Atomic              Coordinates (Angstroms)
 Number     Number      Type              X           Y           Z
 ---------------------------------------------------------------------
    1          8             0        1.220057    0.098933   -0.060679
    2          8             0       -1.220057   -0.098933   -0.060678
    3          1             0       -0.000005   -0.000002   -0.038683
    4          1             0        1.518290   -0.635998    0.504769
    5          1             0       -1.518281    0.636002    0.504766
 ---------------------------------------------------------------------
 Rotational constants (GHZ):    303.8569033      9.5457966      9.4652669
 Standard basis: Aug-CC-pVDZ (5D, 7F)
 There are    73 symmetry adapted basis functions of A   symmetry.
 Integral buffers will be    131072 words long.
 Raffenetti 1 integral format.
 Two-electron integral symmetry is turned on.
    73 basis functions,   119 primitive gaussians,    77 cartesian basis functions
    10 alpha electrons       10 beta electrons
       nuclear repulsion energy        33.1871661236 Hartrees.
 NAtoms=    5 NActive=    5 NUniq=    5 SFac= 7.50D-01 NAtFMM=   80 NAOKFM=F Big=F
 One-electron integrals computed using PRISM.
 NBasis=    73 RedAO= T  NBF=    73
 NBsUse=    73 1.00D-06 NBFU=    73
 Initial guess read from the read-write file:
 Initial guess orbital symmetries:
       Occupied  (A) (A) (A) (A) (A) (A) (A) (A) (A) (A)
       Virtual   (A) (A) (A) (A) (A) (A) (A) (A) (A) (A) (A) (A)
                 (A) (A) (A) (A) (A) (A) (A) (A) (A) (A) (A) (A)
                 (A) (A) (A) (A) (A) (A) (A) (A) (A) (A) (A) (A)
                 (A) (A) (A) (A) (A) (A) (A) (A) (A) (A) (A) (A)
                 (A) (A) (A) (A) (A) (A) (A) (A) (A) (A) (A) (A)
                 (A) (A) (A)
 Harris functional with IExCor=  205 diagonalized for initial guess.
 ExpMin= 2.97D-02 ExpMax= 1.17D+04 ExpMxC= 4.01D+02 IAcc=3 IRadAn=         5 AccDes= 0.00D+00
 HarFok:  IExCor= 205 AccDes= 0.00D+00 IRadAn=         5 IDoV=1
 ScaDFX=  1.000000  1.000000  1.000000  1.000000
 Requested convergence on RMS density matrix=1.00D-08 within 128 cycles.
 Requested convergence on MAX density matrix=1.00D-06.
 Requested convergence on             energy=1.00D-06.
 No special actions if energy rises.
 Keep R1 integrals in memory in canonical form, NReq=     5606541.
 SCF Done:  E(RHF) =  -151.468803556     A.U. after   13 cycles
             Convg  =    0.7493D-08             -V/T =  2.0017
             S**2   =   0.0000
 ExpMin= 2.97D-02 ExpMax= 1.17D+04 ExpMxC= 4.01D+02 IAcc=3 IRadAn=         5 AccDes= 0.00D+00
 HarFok:  IExCor= 205 AccDes= 0.00D+00 IRadAn=         5 IDoV=1
 ScaDFX=  1.000000  1.000000  1.000000  1.000000
 Range of M.O.s used for correlation:     3    73
 NBasis=    73 NAE=    10 NBE=    10 NFC=     2 NFV=     0
 NROrb=     71 NOA=     8 NOB=     8 NVA=    63 NVB=    63
 Fully direct method using O(ONN) memory.
 JobTyp=1 Pass  1:  I=   3 to  10 NPSUse=  1 ParTrn=F ParDer=F DoDerP=T.
 Spin components of T(2) and E(2):
     alpha-alpha T2 =       0.1945222932D-01 E2=     -0.6294540974D-01
     alpha-beta  T2 =       0.1015705544D+00 E2=     -0.3452321430D+00
     beta-beta   T2 =       0.1945222932D-01 E2=     -0.6294540974D-01
 ANorm=    0.1067930247D+01
 E2 =    -0.4711229625D+00 EUMP2 =    -0.15193992651816D+03
 DoAtom=TTTTT
          Differentiating once with respect to electric field.
                with respect to dipole field.
          Differentiating once with respect to nuclear coordinates.
          Store integrals in memory, NReq=     5331141.
          There are   1 degrees of freedom in the 1st order CPHF.
     1 vectors were produced by pass  0.
 AX will form   1 AO Fock derivatives at one time.
     1 vectors were produced by pass  1.
     1 vectors were produced by pass  2.
     1 vectors were produced by pass  3.
     1 vectors were produced by pass  4.
     1 vectors were produced by pass  5.
     1 vectors were produced by pass  6.
     1 vectors were produced by pass  7.
     1 vectors were produced by pass  8.
     1 vectors were produced by pass  9.
     1 vectors were produced by pass 10.
     1 vectors were produced by pass 11.
 Inv2:  IOpt= 1 Iter= 1 AM= 3.04D-16 Conv= 1.00D-12.
 Inverted reduced A of dimension   12 with in-core refinement.
 End of Minotr Frequency-dependent properties file   721 does not exist.
 ***** Axes restored to original set *****
 -------------------------------------------------------------------
 Center     Atomic                   Forces (Hartrees/Bohr)
 Number     Number              X              Y              Z
 -------------------------------------------------------------------
    1          8           0.006302535    0.001062131    0.004205201
    2          8          -0.001354940   -0.007499981    0.000652496
    3          1          -0.001186562    0.001544505   -0.001165351
    4          1          -0.005915915   -0.000951104   -0.002241254
    5          1           0.002154882    0.005844449   -0.001451091
 -------------------------------------------------------------------
 Cartesian Forces:  Max     0.007499981 RMS     0.003688082

 GradGradGradGradGradGradGradGradGradGradGradGradGradGradGradGradGradGrad
 Berny optimization.
 Internal  Forces:  Max     0.006395514 RMS     0.003242833
 Search for a local minimum.
 Step number   4 out of a maximum of  20
 All quantities printed in internal units (Hartrees-Bohrs-Radians)
 Update second derivatives using D2CorX and points  1  2  3  4
 Trust test= 8.22D-01 RLast= 2.60D-01 DXMaxT set to 7.80D-01
 The second derivative matrix:
                          R1        R2        R3        R4        A1
           R1           0.23089
           R2          -0.02800   0.71118
           R3           0.00469  -0.02800   0.23090
           R4          -0.02800   0.10102  -0.02800   0.71112
           A1           0.00910   0.01264   0.00909   0.01263   0.11019
           A2           0.00910   0.01263   0.00909   0.01263  -0.04981
           A3           0.00050  -0.02658   0.00050  -0.02657   0.02621
           D1           0.00022   0.00071   0.00022   0.00071  -0.00141
           D2           0.00022   0.00071   0.00022   0.00071  -0.00141
                          A2        A3        D1        D2
           A2           0.11019
           A3           0.02621   0.24986
           D1          -0.00141  -0.00112   0.00317
           D2          -0.00141  -0.00112   0.00087   0.00317
     Eigenvalues ---    0.00230   0.00387   0.04997   0.16000   0.22620
     Eigenvalues ---    0.23251   0.25506   0.61013   0.82060
 RFO step:  Lambda=-1.55975724D-04.
 Quartic linear search produced a step of -0.12132.
 Iteration  1 RMS(Cart)=  0.04345797 RMS(Int)=  0.00181468
 Iteration  2 RMS(Cart)=  0.00134843 RMS(Int)=  0.00000038
 Iteration  3 RMS(Cart)=  0.00000073 RMS(Int)=  0.00000000
 Variable       Old X    -DE/DX   Delta X   Delta X   Delta X     New X
                                 (Linear)    (Quad)   (Total)
    R1        2.31352   0.00163  -0.00099   0.00679   0.00580   2.31933
    R2        1.84071  -0.00640  -0.00054  -0.00633  -0.00687   1.83384
    R3        2.31351   0.00163  -0.00099   0.00679   0.00580   2.31931
    R4        1.84071  -0.00639  -0.00054  -0.00633  -0.00687   1.83384
    A1        1.80670   0.00005   0.00789  -0.01327  -0.00538   1.80132
    A2        1.80669   0.00005   0.00789  -0.01327  -0.00538   1.80131
    A3        3.10566   0.00272  -0.00135   0.01130   0.00994   3.11560
    D1       -2.21620  -0.00027  -0.02080  -0.04323  -0.06402  -2.28022
    D2       -2.21604  -0.00027  -0.02080  -0.04323  -0.06402  -2.28006
         Item               Value     Threshold  Converged?
 Maximum Force            0.006396     0.000450     NO 
 RMS     Force            0.003243     0.000300     NO 
 Maximum Displacement     0.072284     0.001800     NO 
 RMS     Displacement     0.043277     0.001200     NO 
 Predicted change in Energy=-8.441990D-05
 GradGradGradGradGradGradGradGradGradGradGradGradGradGradGradGradGradGrad

                          Input orientation:                          
 ---------------------------------------------------------------------
 Center     Atomic     Atomic              Coordinates (Angstroms)
 Number     Number      Type              X           Y           Z
 ---------------------------------------------------------------------
    1          8             0       -0.204111    0.705848    0.986267
    2          8             0        0.119676   -0.595949   -1.069173
    3          1             0       -0.033877    0.044093   -0.033269
    4          1             0        0.689505    0.773340    1.358591
    5          1             0       -0.133555   -1.496964   -0.812706
 ---------------------------------------------------------------------
                    Distance matrix (angstroms):
                    1          2          3          4          5
     1  O    0.000000
     2  O    2.454454   0.000000
     3  H    1.227336   1.227326   0.000000
     4  H    0.970428   2.844942   1.729843   0.000000
     5  H    2.844936   0.970427   1.729830   3.247497   0.000000
 Stoichiometry    H3O2(1-)
 Framework group  C1[X(H3O2)]
 Deg. of freedom     9
 Full point group                 C1
 Largest Abelian subgroup         C1      NOp   1
 Largest concise Abelian subgroup C1      NOp   1
                         Standard orientation:                         
 ---------------------------------------------------------------------
 Center     Atomic     Atomic              Coordinates (Angstroms)
 Number     Number      Type              X           Y           Z
 ---------------------------------------------------------------------
    1          8             0        1.223695    0.093039   -0.065305
    2          8             0       -1.223695   -0.093040   -0.065304
    3          1             0       -0.000005   -0.000002   -0.049355
    4          1             0        1.507091   -0.604352    0.547118
    5          1             0       -1.507084    0.604359    0.547112
 ---------------------------------------------------------------------
 Rotational constants (GHZ):    304.1897839      9.4896903      9.4474283
 Standard basis: Aug-CC-pVDZ (5D, 7F)
 There are    73 symmetry adapted basis functions of A   symmetry.
 Integral buffers will be    131072 words long.
 Raffenetti 1 integral format.
 Two-electron integral symmetry is turned on.
    73 basis functions,   119 primitive gaussians,    77 cartesian basis functions
    10 alpha electrons       10 beta electrons
       nuclear repulsion energy        33.1726251947 Hartrees.
 NAtoms=    5 NActive=    5 NUniq=    5 SFac= 7.50D-01 NAtFMM=   80 NAOKFM=F Big=F
 One-electron integrals computed using PRISM.
 NBasis=    73 RedAO= T  NBF=    73
 NBsUse=    73 1.00D-06 NBFU=    73
 Initial guess read from the read-write file:
 Initial guess orbital symmetries:
       Occupied  (A) (A) (A) (A) (A) (A) (A) (A) (A) (A)
       Virtual   (A) (A) (A) (A) (A) (A) (A) (A) (A) (A) (A) (A)
                 (A) (A) (A) (A) (A) (A) (A) (A) (A) (A) (A) (A)
                 (A) (A) (A) (A) (A) (A) (A) (A) (A) (A) (A) (A)
                 (A) (A) (A) (A) (A) (A) (A) (A) (A) (A) (A) (A)
                 (A) (A) (A) (A) (A) (A) (A) (A) (A) (A) (A) (A)
                 (A) (A) (A)
 Harris functional with IExCor=  205 diagonalized for initial guess.
 ExpMin= 2.97D-02 ExpMax= 1.17D+04 ExpMxC= 4.01D+02 IAcc=3 IRadAn=         5 AccDes= 0.00D+00
 HarFok:  IExCor= 205 AccDes= 0.00D+00 IRadAn=         5 IDoV=1
 ScaDFX=  1.000000  1.000000  1.000000  1.000000
 Requested convergence on RMS density matrix=1.00D-08 within 128 cycles.
 Requested convergence on MAX density matrix=1.00D-06.
 Requested convergence on             energy=1.00D-06.
 No special actions if energy rises.
 Keep R1 integrals in memory in canonical form, NReq=     5606541.
 SCF Done:  E(RHF) =  -151.469101886     A.U. after   10 cycles
             Convg  =    0.8445D-08             -V/T =  2.0017
             S**2   =   0.0000
 ExpMin= 2.97D-02 ExpMax= 1.17D+04 ExpMxC= 4.01D+02 IAcc=3 IRadAn=         5 AccDes= 0.00D+00
 HarFok:  IExCor= 205 AccDes= 0.00D+00 IRadAn=         5 IDoV=1
 ScaDFX=  1.000000  1.000000  1.000000  1.000000
 Range of M.O.s used for correlation:     3    73
 NBasis=    73 NAE=    10 NBE=    10 NFC=     2 NFV=     0
 NROrb=     71 NOA=     8 NOB=     8 NVA=    63 NVB=    63
 Fully direct method using O(ONN) memory.
 JobTyp=1 Pass  1:  I=   3 to  10 NPSUse=  1 ParTrn=F ParDer=F DoDerP=T.
 Spin components of T(2) and E(2):
     alpha-alpha T2 =       0.1943215741D-01 E2=     -0.6292328610D-01
     alpha-beta  T2 =       0.1014439330D+00 E2=     -0.3450886983D+00
     beta-beta   T2 =       0.1943215741D-01 E2=     -0.6292328610D-01
 ANorm=    0.1067852166D+01
 E2 =    -0.4709352705D+00 EUMP2 =    -0.15194003715613D+03
 DoAtom=TTTTT
          Differentiating once with respect to electric field.
                with respect to dipole field.
          Differentiating once with respect to nuclear coordinates.
          Store integrals in memory, NReq=     5331141.
          There are   1 degrees of freedom in the 1st order CPHF.
     1 vectors were produced by pass  0.
 AX will form   1 AO Fock derivatives at one time.
     1 vectors were produced by pass  1.
     1 vectors were produced by pass  2.
     1 vectors were produced by pass  3.
     1 vectors were produced by pass  4.
     1 vectors were produced by pass  5.
     1 vectors were produced by pass  6.
     1 vectors were produced by pass  7.
     1 vectors were produced by pass  8.
     1 vectors were produced by pass  9.
     1 vectors were produced by pass 10.
     1 vectors were produced by pass 11.
 Inv2:  IOpt= 1 Iter= 1 AM= 3.29D-16 Conv= 1.00D-12.
 Inverted reduced A of dimension   12 with in-core refinement.
 End of Minotr Frequency-dependent properties file   721 does not exist.
 ***** Axes restored to original set *****
 -------------------------------------------------------------------
 Center     Atomic                   Forces (Hartrees/Bohr)
 Number     Number              X              Y              Z
 -------------------------------------------------------------------
    1          8           0.003160948   -0.000301518    0.001814050
    2          8          -0.000244353   -0.003493776    0.001049723
    3          1          -0.000994618    0.001294630   -0.000976864
    4          1          -0.002652264   -0.000093547   -0.001002883
    5          1           0.000730288    0.002594211   -0.000884026
 -------------------------------------------------------------------
 Cartesian Forces:  Max     0.003493776 RMS     0.001759825

 GradGradGradGradGradGradGradGradGradGradGradGradGradGradGradGradGradGrad
 Berny optimization.
 Internal  Forces:  Max     0.002833615 RMS     0.001515552
 Search for a local minimum.
 Step number   5 out of a maximum of  20
 All quantities printed in internal units (Hartrees-Bohrs-Radians)
 Update second derivatives using D2CorX and points  1  2  3  4  5

 Trust test= 1.31D+00 RLast= 9.23D-02 DXMaxT set to 7.80D-01
 The second derivative matrix:
                          R1        R2        R3        R4        A1
           R1           0.22887
           R2          -0.00360   0.58549
           R3           0.00267  -0.00360   0.22888
           R4          -0.00360  -0.02464  -0.00360   0.58550
           A1           0.00524   0.01409   0.00524   0.01409   0.11475
           A2           0.00524   0.01410   0.00523   0.01410  -0.04525
           A3          -0.02060   0.05569  -0.02059   0.05568   0.03203
           D1          -0.00085   0.00055  -0.00085   0.00055   0.00011
           D2          -0.00085   0.00055  -0.00085   0.00055   0.00011
                          A2        A3        D1        D2
           A2           0.11475
           A3           0.03203   0.21160
           D1           0.00011   0.00064   0.00367
           D2           0.00011   0.00064   0.00137   0.00367
     Eigenvalues ---    0.00230   0.00502   0.05434   0.16000   0.19249
     Eigenvalues ---    0.22620   0.24573   0.58096   0.61013
 RFO step:  Lambda=-4.52712720D-05.
 Quartic linear search produced a step of  0.44546.
 Iteration  1 RMS(Cart)=  0.00873217 RMS(Int)=  0.00010801
 Iteration  2 RMS(Cart)=  0.00008396 RMS(Int)=  0.00000001
 Iteration  3 RMS(Cart)=  0.00000001 RMS(Int)=  0.00000000
 Variable       Old X    -DE/DX   Delta X   Delta X   Delta X     New X
                                 (Linear)    (Quad)   (Total)
    R1        2.31933   0.00039   0.00259   0.00025   0.00284   2.32217
    R2        1.83384  -0.00283  -0.00306  -0.00331  -0.00637   1.82747
    R3        2.31931   0.00039   0.00259   0.00025   0.00284   2.32215
    R4        1.83384  -0.00283  -0.00306  -0.00331  -0.00637   1.82747
    A1        1.80132   0.00025  -0.00240   0.00180  -0.00059   1.80073
    A2        1.80131   0.00025  -0.00240   0.00180  -0.00059   1.80072
    A3        3.11560   0.00204   0.00443   0.00921   0.01364   3.12924
    D1       -2.28022   0.00007  -0.02852   0.04393   0.01541  -2.26481
    D2       -2.28006   0.00007  -0.02852   0.04393   0.01542  -2.26464
         Item               Value     Threshold  Converged?
 Maximum Force            0.002834     0.000450     NO 
 RMS     Force            0.001516     0.000300     NO 
 Maximum Displacement     0.012776     0.001800     NO 
 RMS     Displacement     0.008723     0.001200     NO 
 Predicted change in Energy=-3.384141D-05
 GradGradGradGradGradGradGradGradGradGradGradGradGradGradGradGradGradGrad

                          Input orientation:                          
 ---------------------------------------------------------------------
 Center     Atomic     Atomic              Coordinates (Angstroms)
 Number     Number      Type              X           Y           Z
 ---------------------------------------------------------------------
    1          8             0       -0.204281    0.700439    0.991547
    2          8             0        0.126437   -0.599118   -1.067981
    3          1             0       -0.034954    0.045494   -0.034326
    4          1             0        0.689000    0.777220    1.353976
    5          1             0       -0.138565   -1.493667   -0.813506
 ---------------------------------------------------------------------
                    Distance matrix (angstroms):
                    1          2          3          4          5
     1  O    0.000000
     2  O    2.457617   0.000000
     3  H    1.228837   1.228826   0.000000
     4  H    0.967058   2.841946   1.728269   0.000000
     5  H    2.841943   0.967058   1.728258   3.246501   0.000000
 Stoichiometry    H3O2(1-)
 Framework group  C1[X(H3O2)]
 Deg. of freedom     9
 Full point group                 C1
 Largest Abelian subgroup         C1      NOp   1
 Largest concise Abelian subgroup C1      NOp   1
                         Standard orientation:                         
 ---------------------------------------------------------------------
 Center     Atomic     Atomic              Coordinates (Angstroms)
 Number     Number      Type              X           Y           Z
 ---------------------------------------------------------------------
    1          8             0        1.225228    0.093733   -0.063646
    2          8             0       -1.225228   -0.093733   -0.063646
    3          1             0       -0.000005   -0.000001   -0.056058
    4          1             0        1.503906   -0.610912    0.537199
    5          1             0       -1.503902    0.610917    0.537195
 ---------------------------------------------------------------------
 Rotational constants (GHZ):    305.4889773      9.4762546      9.4261107
 Standard basis: Aug-CC-pVDZ (5D, 7F)
 There are    73 symmetry adapted basis functions of A   symmetry.
 Integral buffers will be    131072 words long.
 Raffenetti 1 integral format.
 Two-electron integral symmetry is turned on.
    73 basis functions,   119 primitive gaussians,    77 cartesian basis functions
    10 alpha electrons       10 beta electrons
       nuclear repulsion energy        33.1805853883 Hartrees.
 NAtoms=    5 NActive=    5 NUniq=    5 SFac= 7.50D-01 NAtFMM=   80 NAOKFM=F Big=F
 One-electron integrals computed using PRISM.
 NBasis=    73 RedAO= T  NBF=    73
 NBsUse=    73 1.00D-06 NBFU=    73
 Initial guess read from the read-write file:
 Initial guess orbital symmetries:
       Occupied  (A) (A) (A) (A) (A) (A) (A) (A) (A) (A)
       Virtual   (A) (A) (A) (A) (A) (A) (A) (A) (A) (A) (A) (A)
                 (A) (A) (A) (A) (A) (A) (A) (A) (A) (A) (A) (A)
                 (A) (A) (A) (A) (A) (A) (A) (A) (A) (A) (A) (A)
                 (A) (A) (A) (A) (A) (A) (A) (A) (A) (A) (A) (A)
                 (A) (A) (A) (A) (A) (A) (A) (A) (A) (A) (A) (A)
                 (A) (A) (A)
 Requested convergence on RMS density matrix=1.00D-08 within 128 cycles.
 Requested convergence on MAX density matrix=1.00D-06.
 Requested convergence on             energy=1.00D-06.
 No special actions if energy rises.
 Keep R1 integrals in memory in canonical form, NReq=     5606541.
 SCF Done:  E(RHF) =  -151.469441250     A.U. after   10 cycles
             Convg  =    0.3159D-08             -V/T =  2.0016
             S**2   =   0.0000
 ExpMin= 2.97D-02 ExpMax= 1.17D+04 ExpMxC= 4.01D+02 IAcc=3 IRadAn=         5 AccDes= 0.00D+00
 HarFok:  IExCor= 205 AccDes= 0.00D+00 IRadAn=         5 IDoV=1
 ScaDFX=  1.000000  1.000000  1.000000  1.000000
 Range of M.O.s used for correlation:     3    73
 NBasis=    73 NAE=    10 NBE=    10 NFC=     2 NFV=     0
 NROrb=     71 NOA=     8 NOB=     8 NVA=    63 NVB=    63
 Fully direct method using O(ONN) memory.
 JobTyp=1 Pass  1:  I=   3 to  10 NPSUse=  1 ParTrn=F ParDer=F DoDerP=T.
 Spin components of T(2) and E(2):
     alpha-alpha T2 =       0.1939941620D-01 E2=     -0.6288676147D-01
     alpha-beta  T2 =       0.1012512286D+00 E2=     -0.3448606299D+00
     beta-beta   T2 =       0.1939941620D-01 E2=     -0.6288676147D-01
 ANorm=    0.1067731268D+01
 E2 =    -0.4706341528D+00 EUMP2 =    -0.15194007540234D+03
 DoAtom=TTTTT
          Differentiating once with respect to electric field.
                with respect to dipole field.
          Differentiating once with respect to nuclear coordinates.
          Store integrals in memory, NReq=     5331141.
          There are   1 degrees of freedom in the 1st order CPHF.
     1 vectors were produced by pass  0.
 AX will form   1 AO Fock derivatives at one time.
     1 vectors were produced by pass  1.
     1 vectors were produced by pass  2.
     1 vectors were produced by pass  3.
     1 vectors were produced by pass  4.
     1 vectors were produced by pass  5.
     1 vectors were produced by pass  6.
     1 vectors were produced by pass  7.
     1 vectors were produced by pass  8.
     1 vectors were produced by pass  9.
     1 vectors were produced by pass 10.
     1 vectors were produced by pass 11.
 Inv2:  IOpt= 1 Iter= 1 AM= 3.25D-16 Conv= 1.00D-12.
 Inverted reduced A of dimension   12 with in-core refinement.
 End of Minotr Frequency-dependent properties file   721 does not exist.
 ***** Axes restored to original set *****
 -------------------------------------------------------------------
 Center     Atomic                   Forces (Hartrees/Bohr)
 Number     Number              X              Y              Z
 -------------------------------------------------------------------
    1          8          -0.000030729   -0.000549759   -0.000166769
    2          8           0.000315517    0.000178943    0.000446739
    3          1          -0.000567548    0.000738755   -0.000557521
    4          1           0.000389722    0.000079990    0.000235817
    5          1          -0.000106961   -0.000447929    0.000041734
 -------------------------------------------------------------------
 Cartesian Forces:  Max     0.000738755 RMS     0.000388892

 GradGradGradGradGradGradGradGradGradGradGradGradGradGradGradGradGradGrad
 Berny optimization.
 Internal  Forces:  Max     0.001158733 RMS     0.000462017
 Search for a local minimum.
 Step number   6 out of a maximum of  20
 All quantities printed in internal units (Hartrees-Bohrs-Radians)
 Update second derivatives using D2CorX and points  1  2  3  4  5
                                                        6
 Trust test= 1.13D+00 RLast= 2.76D-02 DXMaxT set to 7.80D-01
 The second derivative matrix:
                          R1        R2        R3        R4        A1
           R1           0.23568
           R2          -0.02692   0.65638
           R3           0.00949  -0.02694   0.23569
           R4          -0.02692   0.04624  -0.02693   0.65636
           A1           0.00365   0.02285   0.00364   0.02284   0.11458
           A2           0.00364   0.02285   0.00364   0.02285  -0.04542
           A3          -0.02827   0.09938  -0.02826   0.09935   0.03052
           D1          -0.00052   0.00033  -0.00052   0.00033  -0.00035
           D2          -0.00052   0.00033  -0.00052   0.00033  -0.00035
                          A2        A3        D1        D2
           A2           0.11459
           A3           0.03051   0.17226
           D1          -0.00035  -0.00007   0.00357
           D2          -0.00035  -0.00007   0.00127   0.00357
     Eigenvalues ---    0.00230   0.00482   0.05120   0.14465   0.16000
     Eigenvalues ---    0.22620   0.24392   0.61013   0.74946
 RFO step:  Lambda=-6.85958426D-06.
 Quartic linear search produced a step of  0.14004.
 Iteration  1 RMS(Cart)=  0.00399920 RMS(Int)=  0.00000908
 Iteration  2 RMS(Cart)=  0.00001306 RMS(Int)=  0.00000000
 Iteration  3 RMS(Cart)=  0.00000000 RMS(Int)=  0.00000000
 Variable       Old X    -DE/DX   Delta X   Delta X   Delta X     New X
                                 (Linear)    (Quad)   (Total)
    R1        2.32217  -0.00024   0.00040  -0.00060  -0.00020   2.32196
    R2        1.82747   0.00045  -0.00089   0.00054  -0.00035   1.82712
    R3        2.32215  -0.00024   0.00040  -0.00060  -0.00020   2.32194
    R4        1.82747   0.00045  -0.00089   0.00054  -0.00035   1.82712
    A1        1.80073   0.00015  -0.00008  -0.00067  -0.00075   1.79997
    A2        1.80072   0.00015  -0.00008  -0.00067  -0.00075   1.79997
    A3        3.12924   0.00116   0.00191   0.00542   0.00733   3.13657
    D1       -2.26481   0.00000   0.00216  -0.00282  -0.00066  -2.26546
    D2       -2.26464   0.00000   0.00216  -0.00281  -0.00066  -2.26530
         Item               Value     Threshold  Converged?
 Maximum Force            0.001159     0.000450     NO 
 RMS     Force            0.000462     0.000300     NO 
 Maximum Displacement     0.005836     0.001800     NO 
 RMS     Displacement     0.004003     0.001200     NO 
 Predicted change in Energy=-4.022125D-06
 GradGradGradGradGradGradGradGradGradGradGradGradGradGradGradGradGradGrad

                          Input orientation:                          
 ---------------------------------------------------------------------
 Center     Atomic     Atomic              Coordinates (Angstroms)
 Number     Number      Type              X           Y           Z
 ---------------------------------------------------------------------
    1          8             0       -0.204468    0.699887    0.991761
    2          8             0        0.127029   -0.599093   -1.067796
    3          1             0       -0.037105    0.048294   -0.036438
    4          1             0        0.689427    0.774132    1.352701
    5          1             0       -0.137245   -1.492852   -0.810516
 ---------------------------------------------------------------------
                    Distance matrix (angstroms):
                    1          2          3          4          5
     1  O    0.000000
     2  O    2.457441   0.000000
     3  H    1.228730   1.228719   0.000000
     4  H    0.966871   2.839162   1.727540   0.000000
     5  H    2.839160   0.966871   1.727529   3.240696   0.000000
 Stoichiometry    H3O2(1-)
 Framework group  C1[X(H3O2)]
 Deg. of freedom     9
 Full point group                 C1
 Largest Abelian subgroup         C1      NOp   1
 Largest concise Abelian subgroup C1      NOp   1
                         Standard orientation:                         
 ---------------------------------------------------------------------
 Center     Atomic     Atomic              Coordinates (Angstroms)
 Number     Number      Type              X           Y           Z
 ---------------------------------------------------------------------
    1          8             0        1.225154    0.093549   -0.063544
    2          8             0       -1.225154   -0.093549   -0.063544
    3          1             0       -0.000006   -0.000001   -0.060458
    4          1             0        1.500755   -0.610955    0.538583
    5          1             0       -1.500751    0.610959    0.538580
 ---------------------------------------------------------------------
 Rotational constants (GHZ):    305.0412003      9.4801513      9.4306641
 Standard basis: Aug-CC-pVDZ (5D, 7F)
 There are    73 symmetry adapted basis functions of A   symmetry.
 Integral buffers will be    131072 words long.
 Raffenetti 1 integral format.
 Two-electron integral symmetry is turned on.
    73 basis functions,   119 primitive gaussians,    77 cartesian basis functions
    10 alpha electrons       10 beta electrons
       nuclear repulsion energy        33.1873410564 Hartrees.
 NAtoms=    5 NActive=    5 NUniq=    5 SFac= 7.50D-01 NAtFMM=   80 NAOKFM=F Big=F
 One-electron integrals computed using PRISM.
 NBasis=    73 RedAO= T  NBF=    73
 NBsUse=    73 1.00D-06 NBFU=    73
 Initial guess read from the read-write file:
 Initial guess orbital symmetries:
       Occupied  (A) (A) (A) (A) (A) (A) (A) (A) (A) (A)
       Virtual   (A) (A) (A) (A) (A) (A) (A) (A) (A) (A) (A) (A)
                 (A) (A) (A) (A) (A) (A) (A) (A) (A) (A) (A) (A)
                 (A) (A) (A) (A) (A) (A) (A) (A) (A) (A) (A) (A)
                 (A) (A) (A) (A) (A) (A) (A) (A) (A) (A) (A) (A)
                 (A) (A) (A) (A) (A) (A) (A) (A) (A) (A) (A) (A)
                 (A) (A) (A)
 Requested convergence on RMS density matrix=1.00D-08 within 128 cycles.
 Requested convergence on MAX density matrix=1.00D-06.
 Requested convergence on             energy=1.00D-06.
 No special actions if energy rises.
 Keep R1 integrals in memory in canonical form, NReq=     5606541.
 SCF Done:  E(RHF) =  -151.469478224     A.U. after    8 cycles
             Convg  =    0.7995D-08             -V/T =  2.0016
             S**2   =   0.0000
 ExpMin= 2.97D-02 ExpMax= 1.17D+04 ExpMxC= 4.01D+02 IAcc=3 IRadAn=         5 AccDes= 0.00D+00
 HarFok:  IExCor= 205 AccDes= 0.00D+00 IRadAn=         5 IDoV=1
 ScaDFX=  1.000000  1.000000  1.000000  1.000000
 Range of M.O.s used for correlation:     3    73
 NBasis=    73 NAE=    10 NBE=    10 NFC=     2 NFV=     0
 NROrb=     71 NOA=     8 NOB=     8 NVA=    63 NVB=    63
 Fully direct method using O(ONN) memory.
 JobTyp=1 Pass  1:  I=   3 to  10 NPSUse=  1 ParTrn=F ParDer=F DoDerP=T.
 Spin components of T(2) and E(2):
     alpha-alpha T2 =       0.1939545792D-01 E2=     -0.6288298915D-01
     alpha-beta  T2 =       0.1012290085D+00 E2=     -0.3448373218D+00
     beta-beta   T2 =       0.1939545792D-01 E2=     -0.6288298915D-01
 ANorm=    0.1067717156D+01
 E2 =    -0.4706033001D+00 EUMP2 =    -0.15194008152403D+03
 DoAtom=TTTTT
          Differentiating once with respect to electric field.
                with respect to dipole field.
          Differentiating once with respect to nuclear coordinates.
          Store integrals in memory, NReq=     5331141.
          There are   1 degrees of freedom in the 1st order CPHF.
     1 vectors were produced by pass  0.
 AX will form   1 AO Fock derivatives at one time.
     1 vectors were produced by pass  1.
     1 vectors were produced by pass  2.
     1 vectors were produced by pass  3.
     1 vectors were produced by pass  4.
     1 vectors were produced by pass  5.
     1 vectors were produced by pass  6.
     1 vectors were produced by pass  7.
     1 vectors were produced by pass  8.
     1 vectors were produced by pass  9.
     1 vectors were produced by pass 10.
     1 vectors were produced by pass 11.
 Inv2:  IOpt= 1 Iter= 1 AM= 3.44D-16 Conv= 1.00D-12.
 Inverted reduced A of dimension   12 with in-core refinement.
 End of Minotr Frequency-dependent properties file   721 does not exist.
 ***** Axes restored to original set *****
 -------------------------------------------------------------------
 Center     Atomic                   Forces (Hartrees/Bohr)
 Number     Number              X              Y              Z
 -------------------------------------------------------------------
    1          8          -0.000324981   -0.000378297   -0.000280667
    2          8           0.000265707    0.000455172    0.000222844
    3          1          -0.000330376    0.000430072   -0.000324661
    4          1           0.000549362    0.000087491    0.000282259
    5          1          -0.000159712   -0.000594438    0.000100225
 -------------------------------------------------------------------
 Cartesian Forces:  Max     0.000594438 RMS     0.000349522

 GradGradGradGradGradGradGradGradGradGradGradGradGradGradGradGradGradGrad
 Berny optimization.
 Internal  Forces:  Max     0.000650992 RMS     0.000378794
 Search for a local minimum.
 Step number   7 out of a maximum of  20
 All quantities printed in internal units (Hartrees-Bohrs-Radians)
 Update second derivatives using D2CorX and points  1  2  3  4  5
                                                        6  7
 Trust test= 1.52D+00 RLast= 7.48D-03 DXMaxT set to 7.80D-01
 The second derivative matrix:
                          R1        R2        R3        R4        A1
           R1           0.22971
           R2          -0.01593   0.67078
           R3           0.00351  -0.01594   0.22971
           R4          -0.01592   0.06063  -0.01593   0.67073
           A1           0.00812   0.01373   0.00812   0.01372   0.11174
           A2           0.00812   0.01373   0.00812   0.01372  -0.04826
           A3          -0.00152   0.01488  -0.00148   0.01488   0.01215
           D1          -0.00041   0.00086  -0.00041   0.00086  -0.00040
           D2          -0.00041   0.00086  -0.00041   0.00086  -0.00040
                          A2        A3        D1        D2
           A2           0.11174
           A3           0.01213   0.07300
           D1          -0.00040  -0.00086   0.00356
           D2          -0.00040  -0.00086   0.00126   0.00356
     Eigenvalues ---    0.00230   0.00478   0.04909   0.08378   0.16000
     Eigenvalues ---    0.22620   0.23308   0.61013   0.73517
 RFO step:  Lambda=-2.11984302D-06.
 Quartic linear search produced a step of  1.09336.
 Iteration  1 RMS(Cart)=  0.00034375 RMS(Int)=  0.00288124
 Iteration  2 RMS(Cart)=  0.00000000 RMS(Int)=  0.00288124
 Variable       Old X    -DE/DX   Delta X   Delta X   Delta X     New X
                                 (Linear)    (Quad)   (Total)
    R1        2.32196  -0.00018  -0.00022  -0.00043  -0.00007   2.32190
    R2        1.82712   0.00062  -0.00039   0.00101   0.00006   1.82718
    R3        2.32194  -0.00018  -0.00022  -0.00043  -0.00007   2.32188
    R4        1.82712   0.00062  -0.00039   0.00101   0.00006   1.82718
    A1        1.79997   0.00013  -0.00082   0.00110   0.00003   1.80000
    A2        1.79997   0.00013  -0.00082   0.00110   0.00003   1.80000
    A3        3.13657   0.00065   0.00801   0.00057   0.00086   3.13743
    D1       -2.26546   0.00001  -0.00072   0.00362   0.00029  -2.26517
    D2       -2.26530   0.00001  -0.00072   0.00362   0.00029  -2.26501
         Item               Value     Threshold  Converged?
 Maximum Force            0.000651     0.000450     NO 
 RMS     Force            0.000379     0.000300     NO 
 Maximum Displacement     0.000492     0.001800     YES
 RMS     Displacement     0.000344     0.001200     YES
 Predicted change in Energy=-6.382020D-07
 GradGradGradGradGradGradGradGradGradGradGradGradGradGradGradGradGradGrad

                          Input orientation:                          
 ---------------------------------------------------------------------
 Center     Atomic     Atomic              Coordinates (Angstroms)
 Number     Number      Type              X           Y           Z
 ---------------------------------------------------------------------
    1          8             0       -0.204505    0.699700    0.991833
    2          8             0        0.127218   -0.599103   -1.067720
    3          1             0       -0.037305    0.048554   -0.036634
    4          1             0        0.689501    0.774022    1.352571
    5          1             0       -0.137270   -1.492806   -0.810339
 ---------------------------------------------------------------------
                    Distance matrix (angstroms):
                    1          2          3          4          5
     1  O    0.000000
     2  O    2.457374   0.000000
     3  H    1.228695   1.228684   0.000000
     4  H    0.966904   2.838916   1.727554   0.000000
     5  H    2.838913   0.966904   1.727542   3.240407   0.000000
 Stoichiometry    H3O2(1-)
 Framework group  C1[X(H3O2)]
 Deg. of freedom     9
 Full point group                 C1
 Largest Abelian subgroup         C1      NOp   1
 Largest concise Abelian subgroup C1      NOp   1
                         Standard orientation:                         
 ---------------------------------------------------------------------
 Center     Atomic     Atomic              Coordinates (Angstroms)
 Number     Number      Type              X           Y           Z
 ---------------------------------------------------------------------
    1          8             0        1.225119    0.093566   -0.063506
    2          8             0       -1.225119   -0.093566   -0.063506
    3          1             0       -0.000006   -0.000001   -0.060947
    4          1             0        1.500521   -0.611145    0.538523
    5          1             0       -1.500518    0.611149    0.538520
 ---------------------------------------------------------------------
 Rotational constants (GHZ):    304.9759525      9.4809156      9.4312909
 Standard basis: Aug-CC-pVDZ (5D, 7F)
 There are    73 symmetry adapted basis functions of A   symmetry.
 Integral buffers will be    131072 words long.
 Raffenetti 1 integral format.
 Two-electron integral symmetry is turned on.
    73 basis functions,   119 primitive gaussians,    77 cartesian basis functions
    10 alpha electrons       10 beta electrons
       nuclear repulsion energy        33.1878761152 Hartrees.
 NAtoms=    5 NActive=    5 NUniq=    5 SFac= 7.50D-01 NAtFMM=   80 NAOKFM=F Big=F
 One-electron integrals computed using PRISM.
 NBasis=    73 RedAO= T  NBF=    73
 NBsUse=    73 1.00D-06 NBFU=    73
 Initial guess read from the read-write file:
 Initial guess orbital symmetries:
       Occupied  (A) (A) (A) (A) (A) (A) (A) (A) (A) (A)
       Virtual   (A) (A) (A) (A) (A) (A) (A) (A) (A) (A) (A) (A)
                 (A) (A) (A) (A) (A) (A) (A) (A) (A) (A) (A) (A)
                 (A) (A) (A) (A) (A) (A) (A) (A) (A) (A) (A) (A)
                 (A) (A) (A) (A) (A) (A) (A) (A) (A) (A) (A) (A)
                 (A) (A) (A) (A) (A) (A) (A) (A) (A) (A) (A) (A)
                 (A) (A) (A)
[...]

            Population analysis using the SCF density.

 **********************************************************************

 Orbital symmetries:
       Occupied  (A) (A) (A) (A) (A) (A) (A) (A) (A) (A)
       Virtual   (A) (A) (A) (A) (A) (A) (A) (A) (A) (A) (A) (A)
                 (A) (A) (A) (A) (A) (A) (A) (A) (A) (A) (A) (A)
                 (A) (A) (A) (A) (A) (A) (A) (A) (A) (A) (A) (A)
                 (A) (A) (A) (A) (A) (A) (A) (A) (A) (A) (A) (A)
                 (A) (A) (A) (A) (A) (A) (A) (A) (A) (A) (A) (A)
                 (A) (A) (A)
 The electronic state is 1-A.
 Alpha  occ. eigenvalues --  -20.27792 -20.27789  -1.04239  -1.00063  -0.41953
 Alpha  occ. eigenvalues --   -0.34672  -0.30333  -0.20988  -0.20592  -0.17685
 Alpha virt. eigenvalues --    0.16787   0.18454   0.22375   0.34862   0.36744
 Alpha virt. eigenvalues --    0.38506   0.39981   0.40482   0.40609   0.46677
 Alpha virt. eigenvalues --    0.48293   0.54594   0.55780   0.58997   0.61663
 Alpha virt. eigenvalues --    0.64483   0.65272   0.77694   0.81920   0.83038
 Alpha virt. eigenvalues --    0.86567   0.90405   1.02801   1.05649   1.18350
 Alpha virt. eigenvalues --    1.18813   1.35344   1.35723   1.38153   1.41514
 Alpha virt. eigenvalues --    1.45621   1.46262   1.55053   1.61347   1.68296
 Alpha virt. eigenvalues --    1.75039   1.84586   1.85857   1.88635   1.91984
 Alpha virt. eigenvalues --    2.23772   2.25929   2.32002   2.34544   2.54381
 Alpha virt. eigenvalues --    2.70783   2.79100   2.79867   2.87175   2.99842
 Alpha virt. eigenvalues --    3.06714   3.31848   3.34160   3.94144   3.95992
 Alpha virt. eigenvalues --    3.97271   3.98173   4.01117   4.02725   4.04404
 Alpha virt. eigenvalues --    4.40085   4.49072   4.84025
          Condensed to atoms (all electrons):
              1          2          3          4          5
     1  O    8.518417  -0.158356   0.121833   0.345955  -0.001732
     2  O   -0.158356   8.518397   0.121841  -0.001732   0.345954
     3  H    0.121833   0.121841   0.205363  -0.011784  -0.011785
     4  H    0.345955  -0.001732  -0.011784   0.635841  -0.007123
     5  H   -0.001732   0.345954  -0.011785  -0.007123   0.635840
 Mulliken atomic charges:
              1
     1  O   -0.826117
     2  O   -0.826104
     3  H    0.574532
     4  H    0.038844
     5  H    0.038846
 Sum of Mulliken charges=  -1.00000
 Atomic charges with hydrogens summed into heavy atoms:
              1
     1  O   -0.787273
     2  O   -0.212727
     3  H    0.000000
     4  H    0.000000
     5  H    0.000000
 Sum of Mulliken charges=  -1.00000
 APT atomic charges:
              1
     1  O   -1.016852
     2  O   -1.016848
     3  H    0.801841
     4  H    0.115928
     5  H    0.115931
 Sum of APT charges=  -1.00000
 APT Atomic charges with hydrogens summed into heavy atoms:
              1
     1  O   -0.900924
     2  O   -0.099076
     3  H    0.000000
     4  H    0.000000
     5  H    0.000000
 Sum of APT charges=  -1.00000
 Electronic spatial extent (au):  <R**2>=   149.3650
 Charge=    -1.0000 electrons
 Dipole moment (field-independent basis, Debye):
    X=    -0.0001    Y=     0.0000    Z=     1.8758  Tot=     1.8758
 Quadrupole moment (field-independent basis, Debye-Ang):
   XX=   -25.7800   YY=   -15.1958   ZZ=   -15.6276
   XY=    -4.1275   XZ=     0.0000   YZ=     0.0000
 Traceless Quadrupole moment (field-independent basis, Debye-Ang):
   XX=    -6.9122   YY=     3.6720   ZZ=     3.2402
   XY=    -4.1275   XZ=     0.0000   YZ=     0.0000
 Octapole moment (field-independent basis, Debye-Ang**2):
  XXX=    -0.0002  YYY=     0.0000  ZZZ=     1.2220  XYY=    -0.0001
  XXY=     0.0000  XXZ=     5.5636  XZZ=     0.0000  YZZ=     0.0000
  YYZ=     0.7321  XYZ=    -2.5816
 Hexadecapole moment (field-independent basis, Debye-Ang**3):
 XXXX=  -182.2249 YYYY=   -20.4757 ZZZZ=   -20.4656 XXXY=   -11.9449
 XXXZ=     0.0000 YYYX=    -3.5193 YYYZ=     0.0000 ZZZX=     0.0000
 ZZZY=     0.0000 XXYY=   -29.8915 XXZZ=   -30.6337 YYZZ=    -6.4742
 XXYZ=     0.0000 YYXZ=     0.0000 ZZXY=    -1.6299
 N-N= 3.318964521513D+01 E-N=-4.320198943069D+02  KE= 1.512237836443D+02
  Exact polarizability:  39.511  -0.177  26.530   0.000   0.000  26.821
 Approx polarizability:  20.851  -0.758  18.268   0.000   0.000  17.894
 Full mass-weighted force constant matrix:
 Low frequencies --- -680.4256  -67.1385   -6.6887   -0.0007   -0.0006    0.0013
 Low frequencies ---    2.5470  206.2211  555.3906
 ******    1 imaginary frequencies (negative Signs) ****** 
 Diagonal vibrational polarizability:
      315.2404214       0.4483053      57.2899624
 Harmonic frequencies (cm**-1), IR intensities (KM/Mole), Raman scattering
 activities (A**4/AMU), depolarization ratios for plane and unpolarized
 incident light, reduced masses (AMU), force constants (mDyne/A),
 and normal coordinates:
                     1                      2                      3
                     A                      A                      A
 Frequencies --  -680.4245               206.2194               555.3898
 Red. masses --     1.0236                 1.0726                 1.3197
 Frc consts  --     0.2792                 0.0269                 0.2398
 IR Inten    --  4493.1481                89.2711                 4.2419
 Atom AN      X      Y      Z        X      Y      Z        X      Y      Z
   1   8    -0.02   0.00   0.00     0.00   0.03   0.03     0.10  -0.02  -0.01
   2   8    -0.02   0.00   0.00     0.00  -0.03   0.03    -0.10   0.02  -0.01
   3   1     0.97   0.13   0.00     0.00   0.00   0.03     0.00   0.00   0.30
   4   1    -0.13  -0.02   0.01     0.06  -0.45  -0.54     0.65   0.14  -0.07
   5   1    -0.13  -0.02  -0.01    -0.06   0.45  -0.54    -0.65  -0.14  -0.07
                     4                      5                      6
                     A                      A                      A
 Frequencies --   557.1326               599.3223              1497.6450
 Red. masses --     1.0903                 3.6489                 1.0445
 Frc consts  --     0.1994                 0.7722                 1.3803
 IR Inten    --   626.7361                 3.1941                15.4383
 Atom AN      X      Y      Z        X      Y      Z        X      Y      Z
   1   8     0.05   0.00  -0.03     0.29   0.05   0.00     0.01   0.01  -0.03
   2   8     0.05   0.00   0.03    -0.29  -0.05   0.00    -0.01  -0.01  -0.03
   3   1    -0.19   0.35   0.00     0.00   0.00  -0.40     0.00   0.00   0.94
   4   1    -0.62  -0.16   0.10    -0.53  -0.18   0.12    -0.23  -0.05   0.03
   5   1    -0.62  -0.16  -0.10     0.53   0.18   0.12     0.23   0.05   0.03
                     7                      8                      9
                     A                      A                      A
 Frequencies --  1578.7458              3836.1416              3837.5110
 Red. masses --     1.0478                 1.0660                 1.0657
 Frc consts  --     1.5387                 9.2426                 9.2465
 IR Inten    --    16.3842                 1.9864                 2.0697
 Atom AN      X      Y      Z        X      Y      Z        X      Y      Z
   1   8     0.01   0.03  -0.01    -0.01   0.03  -0.03    -0.01   0.03  -0.03
   2   8     0.01   0.03   0.01     0.01  -0.03  -0.03    -0.01   0.03   0.03
   3   1     0.07  -0.94   0.00     0.00   0.00  -0.02     0.02   0.02   0.00
   4   1    -0.23  -0.05   0.03     0.21  -0.51   0.44     0.21  -0.51   0.44
   5   1    -0.23  -0.05  -0.03    -0.21   0.51   0.44     0.21  -0.51  -0.44

 -------------------
 - Thermochemistry -
 -------------------
 Temperature   298.150 Kelvin.  Pressure   1.00000 Atm.
 Atom  1 has atomic number  8 and mass  15.99491
 Atom  2 has atomic number  8 and mass  15.99491
 Atom  3 has atomic number  1 and mass   1.00783
 Atom  4 has atomic number  1 and mass   1.00783
 Atom  5 has atomic number  1 and mass   1.00783
 Molecular mass:    35.01330 amu.
 Principal axes and moments of inertia in atomic units:
                           1         2         3
     EIGENVALUES --     5.92411 190.33462 191.24088
           X            0.99939  -0.03499   0.00000
           Y            0.03499   0.99939   0.00000
           Z            0.00000   0.00000   1.00000
 This molecule is an asymmetric top.
 Rotational symmetry number  1.
 Rotational temperatures (Kelvin)     14.62057     0.45506     0.45290
 Rotational constants (GHZ):         304.64359     9.48194     9.43701
    1 imaginary frequencies ignored.
 Zero-point vibrational energy      75772.1 (Joules/Mol)
                                   18.10997 (Kcal/Mol)
 Warning -- explicit consideration of   4 degrees of freedom as
           vibrations may cause significant error
 Vibrational temperatures:    296.70   799.08   801.59   862.29  2154.77
          (Kelvin)           2271.46  5519.35  5521.32
 
 Zero-point correction=                           0.028860 (Hartree/Particle)
 Thermal correction to Energy=                    0.032784
 Thermal correction to Enthalpy=                  0.033728
 Thermal correction to Gibbs Free Energy=         0.005122
 Sum of electronic and zero-point Energies=           -151.911223
 Sum of electronic and thermal Energies=              -151.907300
 Sum of electronic and thermal Enthalpies=            -151.906355
 Sum of electronic and thermal Free Energies=         -151.934961
 
                     E (Thermal)             CV                S
                      KCal/Mol        Cal/Mol-Kelvin    Cal/Mol-Kelvin
 Total                   20.572             11.210             60.206
 Electronic               0.000              0.000              0.000
 Translational            0.889              2.981             36.590
 Rotational               0.889              2.981             20.006
 Vibrational             18.795              5.249              3.611
 Vibration  1             0.641              1.831              2.077
 Vibration  2             0.911              1.128              0.533
 Vibration  3             0.913              1.124              0.530
 Vibration  4             0.957              1.033              0.451
                       Q            Log10(Q)             Ln(Q)
 Total Bot       0.440539D-02         -2.356016         -5.424927
 Total V=0       0.829216D+11         10.918668         25.141162
 Vib (Bot)       0.102913D-12        -12.987528        -29.904888
 Vib (Bot)  1    0.964578D+00         -0.015663         -0.036064
 Vib (Bot)  2    0.281099D+00         -0.551141         -1.269048
 Vib (Bot)  3    0.279747D+00         -0.553235         -1.273870
 Vib (Bot)  4    0.249321D+00         -0.603241         -1.389013
 Vib (V=0)       0.193712D+01          0.287156          0.661201
 Vib (V=0)  1    0.158647D+01          0.200431          0.461510
 Vib (V=0)  2    0.107360D+01          0.030842          0.071017
 Vib (V=0)  3    0.107294D+01          0.030575          0.070401
 Vib (V=0)  4    0.105871D+01          0.024779          0.057055
 Electronic      0.100000D+01          0.000000          0.000000
 Translational   0.814338D+07          6.910805         15.912716
 Rotational      0.525663D+04          3.720707          8.567245
 ***** Axes restored to original set *****
 -------------------------------------------------------------------
 Center     Atomic                   Forces (Hartrees/Bohr)
 Number     Number              X              Y              Z
 -------------------------------------------------------------------
    1          8          -0.000150702   -0.000229575   -0.000111619
    2          8           0.000171632    0.000202144    0.000132517
    3          1          -0.000193538    0.000251982   -0.000190323
    4          1           0.000274253    0.000063517    0.000126385
    5          1          -0.000101646   -0.000288067    0.000043040
 -------------------------------------------------------------------
 Cartesian Forces:  Max     0.000288067 RMS     0.000183179

 GradGradGradGradGradGradGradGradGradGradGradGradGradGradGradGradGradGrad
 Berny optimization.
 Internal  Forces:  Max     0.000380315 RMS     0.000200304
 Search for a local minimum.
 Step number   1 out of a maximum of   2
 All quantities printed in internal units (Hartrees-Bohrs-Radians)
 Second derivative matrix not updated -- analytic derivatives used.
 The second derivative matrix:
                          R1        R2        R3        R4        A1
           R1           0.10451
           R2          -0.00572   0.52853
           R3           0.11261   0.00126   0.10451
           R4           0.00126  -0.00011  -0.00572   0.52853
           A1           0.00617   0.01261   0.01283   0.00016   0.06544
           A2           0.01283   0.00016   0.00617   0.01261   0.00037
           A3          -0.00066   0.00423  -0.00066   0.00423   0.01189
           D1          -0.00008   0.00002  -0.00008   0.00001  -0.00013
           D2          -0.00008   0.00001  -0.00008   0.00002  -0.00016
                          A2        A3        D1        D2
           A2           0.06544
           A3           0.01189   0.07197
           D1          -0.00016  -0.00084   0.00265
           D2          -0.00013  -0.00084   0.00265   0.00265
     Eigenvalues ---   -0.00877   0.00000   0.00529   0.05029   0.06531
     Eigenvalues ---    0.08468   0.21945   0.52891   0.52907
 Eigenvalue   1 out of range, new value =    0.008769 Eigenvector:
                           1
           R1           0.70432
           R2           0.00770
           R3          -0.70431
           R4          -0.00770
           A1           0.06228
           A2          -0.06227
           A3          -0.00001
           D1          -0.00057
           D2           0.00057
 Eigenvalue   2 out of range, new value =    0.000000 Eigenvector:
                           1
           R1           0.00059
           R2           0.00000
           R3          -0.00059
           R4           0.00000
           A1          -0.00019
           A2           0.00019
           A3           0.00000
           D1           0.70711
           D2          -0.70711
 Angle between quadratic step and forces=  68.32 degrees.
 Linear search not attempted -- first point.
 Iteration  1 RMS(Cart)=  0.00057008 RMS(Int)=  0.00478236
 Iteration  2 RMS(Cart)=  0.00000000 RMS(Int)=  0.00478236
 Variable       Old X    -DE/DX   Delta X   Delta X   Delta X     New X
                                 (Linear)    (Quad)   (Total)
    R1        2.32153  -0.00009   0.00000  -0.00038  -0.00004   2.32149
    R2        1.82768   0.00031   0.00000   0.00053   0.00005   1.82773
    R3        2.32150  -0.00009   0.00000  -0.00040  -0.00004   2.32146
    R4        1.82768   0.00031   0.00000   0.00053   0.00005   1.82773
    A1        1.80030   0.00006   0.00000   0.00002   0.00000   1.80031
    A2        1.80030   0.00006   0.00000   0.00002   0.00000   1.80030
    A3        3.13997   0.00038   0.00000   0.00545   0.00055   3.14052
    D1       -2.27314   0.00005   0.00000   0.01200   0.00128  -2.27186
    D2       -2.27299   0.00005   0.00000   0.00894   0.00082  -2.27217
         Item               Value     Threshold  Converged?
 Maximum Force            0.000380     0.000450     YES
 RMS     Force            0.000200     0.000300     YES
 Maximum Displacement     0.000840     0.001800     YES
 RMS     Displacement     0.000570     0.001200     YES
 Predicted change in Energy=-3.368324D-07
 Optimization completed.
    -- Stationary point found.
                           ----------------------------
                           !   Optimized Parameters   !
                           ! (Angstroms and Degrees)  !
 --------------------------                            --------------------------
 ! Name  Definition              Value          Derivative Info.                !
 --------------------------------------------------------------------------------
 ! R1    R(1,3)                  1.2285         -DE/DX =   -0.0001              !
 ! R2    R(1,4)                  0.9672         -DE/DX =    0.0003              !
 ! R3    R(2,3)                  1.2285         -DE/DX =   -0.0001              !
 ! R4    R(2,5)                  0.9672         -DE/DX =    0.0003              !
 ! A1    A(3,1,4)              103.1498         -DE/DX =    0.0001              !
 ! A2    A(3,2,5)              103.1497         -DE/DX =    0.0001              !
 ! A3    A(1,3,2)              179.9072         -DE/DX =    0.0004              !
 ! D1    D(4,1,3,2)           -130.2415         -DE/DX =    0.0001              !
 ! D2    D(5,2,3,1)           -130.2327         -DE/DX =    0.0001              !
 --------------------------------------------------------------------------------
 GradGradGradGradGradGradGradGradGradGradGradGradGradGradGradGradGradGrad

 1\1\GINC-POLARIS-C02\Freq\RMP2-FC\Aug-CC-pVDZ\H3O2(1-)\G060005\03-May-
 2007\0\\#N Geom=AllCheck Guess=Read SCRF=Check GenChk RMP2(FC)/Aug-CC-
 pVDZ Freq\\Title Card Required\\-1,1\O,-0.204012258,0.7020185334,0.990
 2173714\O,0.1244773973,-0.5984960301,-1.0683102472\H,-0.0392462153,0.0
 510807957,-0.0385406484\H,0.6897583508,0.7691410796,1.3536413723\H,-0.
 1333392748,-1.4933763786,-0.8072968481\\Version=AM64L-G03RevD.01\State
 =1-A\HF=-151.4694626\MP2=-151.9400835\RMSD=4.318e-10\RMSF=1.832e-04\Ze
 roPoint=0.0288601\Thermal=0.0327839\Dipole=0.35856,-0.4667139,0.352043
 4\DipoleDeriv=-0.4659466,0.0593149,0.2065883,-0.0065191,-1.1251193,-0.
 4389369,0.0970403,-0.4437623,-1.4594903,-0.8056923,0.1644201,0.0367422
 ,0.1164224,-0.8463444,-0.531369,-0.0046065,-0.6424762,-1.3985083,0.111
 7304,-0.1067519,-0.1442062,-0.0732626,0.7727335,0.9543573,-0.0998124,0
 .9884647,1.521058,-0.0575098,-0.0241336,-0.1299382,0.0284752,0.2266169
 ,-0.017141,-0.0405112,-0.0355275,0.1786783,0.2174183,-0.0928494,0.0308
 14,-0.065116,-0.0278867,0.0330896,0.0478898,0.1333013,0.1582622\Polar=
 26.6513512,-0.5358963,30.9180194,-0.5380598,5.977279,35.2921484\PG=C01
  [X(H3O2)]\NImag=1\\0.47837922,0.02083388,0.04825577,0.16577668,0.0615
 6043,0.16083945,0.01412124,0.00486874,0.00814933,0.05481099,0.00560483
 ,-0.02066660,-0.05265865,0.12510964,0.49440130,0.00734996,-0.05234100,
 -0.06257290,-0.05366869,-0.09175409,0.13826957,-0.04473707,0.01023164,
 0.01300086,-0.03137577,-0.00015201,0.00648289,0.07812361,-0.00479446,-
 0.02026018,0.01573454,-0.01020098,-0.02234658,0.03598618,0.00988456,0.
 05172961,-0.01095465,0.01495779,-0.00505130,-0.00280124,0.01122457,-0.
 01633281,0.00979628,-0.04075237,0.01087812,-0.44780292,-0.03705643,-0.
 18748223,0.00098216,0.00050268,0.00142682,-0.00237812,0.00282228,0.003
 99536,0.44928983,-0.02312157,-0.00876967,-0.01994682,0.00360846,-0.002
 12382,-0.00252661,-0.01342429,0.00189753,-0.00047294,0.03358949,0.0089
 1248,-0.16409483,-0.02380641,-0.08653870,0.00464721,-0.00332049,-0.004
 05479,-0.02318322,0.00414380,0.00016699,0.18217045,0.02314159,0.090426
 31,0.00003954,0.00112217,0.00055536,-0.03853861,-0.13106514,0.03840901
 ,0.00036735,0.00228860,-0.00003576,-0.00009095,-0.00065209,0.00046038,
 0.03822267,0.00147732,0.00144069,-0.00468950,-0.12338587,-0.44926429,0
 .11063551,-0.00653990,-0.01102039,0.01504294,0.00014198,0.00008349,-0.
 00015849,0.12830647,0.45876050,0.00192284,-0.00037081,-0.00667656,0.04
 367339,0.13650865,-0.05530907,-0.00609682,-0.01511215,0.01033901,-0.00
 011040,-0.00019522,0.00000019,-0.03938900,-0.12083047,0.05164644\\0.00
 015070,0.00022958,0.00011162,-0.00017163,-0.00020214,-0.00013252,0.000
 19354,-0.00025198,0.00019032,-0.00027425,-0.00006352,-0.00012638,0.000
 10165,0.00028807,-0.00004304\\\@


 REFRAIN FROM ILLUSIONS, INSIST ON WORK AND NOT WORDS,
 PATIENTLY SEEK DIVINE AND SCIENTIFIC TRUTH.
 LAST WORDS OF MARIA MENDELEEVA TO HER SON DMITRI, C. 1850
 Job cpu time:  0 days  0 hours  2 minutes 49.4 seconds.
 File lengths (MBytes):  RWF=    206 Int=      0 D2E=      0 Chk=     10 Scr=      1
 Normal termination of Gaussian 03 at Thu May  3 00:43:02 2007.
