 Entering Gaussian System, Link 0=g03
 Initial command:
 /lustre/lwork/chinh/g03-em64t/g03/l1.exe /lustre/lwork/chinh/tmp/NQC-ppW3-4.xyz.1.com/Gau-14276.inp -scrdir=/lustre/lwork/chinh/tmp/NQC-ppW3-4.xyz.1.com/
 Entering Link 1 = /lustre/lwork/chinh/g03-em64t/g03/l1.exe PID=     14277.
  
 Copyright (c) 1988,1990,1992,1993,1995,1998,2003,2004, Gaussian, Inc.
                  All Rights Reserved.
  
 This is the Gaussian(R) 03 program.  It is based on the
 the Gaussian(R) 98 system (copyright 1998, Gaussian, Inc.),
 the Gaussian(R) 94 system (copyright 1995, Gaussian, Inc.),
 the Gaussian 92(TM) system (copyright 1992, Gaussian, Inc.),
 the Gaussian 90(TM) system (copyright 1990, Gaussian, Inc.),
 the Gaussian 88(TM) system (copyright 1988, Gaussian, Inc.),
 the Gaussian 86(TM) system (copyright 1986, Carnegie Mellon
 University), and the Gaussian 82(TM) system (copyright 1983,
 Carnegie Mellon University). Gaussian is a federally registered
 trademark of Gaussian, Inc.
  
 This software contains proprietary and confidential information,
 including trade secrets, belonging to Gaussian, Inc.
  
 This software is provided under written license and may be
 used, copied, transmitted, or stored only in accord with that
 written license.
  
 The following legend is applicable only to US Government
 contracts under FAR:
  
                    RESTRICTED RIGHTS LEGEND
  
 Use, reproduction and disclosure by the US Government is
 subject to restrictions as set forth in subparagraphs (a)
 and (c) of the Commercial Computer Software - Restricted
 Rights clause in FAR 52.227-19.
  
 Gaussian, Inc.
 340 Quinnipiac St., Bldg. 40, Wallingford CT 06492
  
  
 ---------------------------------------------------------------
 Warning -- This program may not be used in any manner that
 competes with the business of Gaussian, Inc. or will provide
 assistance to any competitor of Gaussian, Inc.  The licensee
 of this program is prohibited from giving any competitor of
 Gaussian, Inc. access to this program.  By using this program,
 the user acknowledges that Gaussian, Inc. is engaged in the
 business of creating and licensing software in the field of
 computational chemistry and represents and warrants to the
 licensee that it is not a competitor of Gaussian, Inc. and that
 it will not use this program in any manner prohibited above.
 ---------------------------------------------------------------
  

 Cite this work as:
 Gaussian 03, Revision D.01,
 M. J. Frisch, G. W. Trucks, H. B. Schlegel, G. E. Scuseria, 
 M. A. Robb, J. R. Cheeseman, J. A. Montgomery, Jr., T. Vreven, 
 K. N. Kudin, J. C. Burant, J. M. Millam, S. S. Iyengar, J. Tomasi, 
 V. Barone, B. Mennucci, M. Cossi, G. Scalmani, N. Rega, 
 G. A. Petersson, H. Nakatsuji, M. Hada, M. Ehara, K. Toyota, 
 R. Fukuda, J. Hasegawa, M. Ishida, T. Nakajima, Y. Honda, O. Kitao, 
 H. Nakai, M. Klene, X. Li, J. E. Knox, H. P. Hratchian, J. B. Cross, 
 V. Bakken, C. Adamo, J. Jaramillo, R. Gomperts, R. E. Stratmann, 
 O. Yazyev, A. J. Austin, R. Cammi, C. Pomelli, J. W. Ochterski, 
 P. Y. Ayala, K. Morokuma, G. A. Voth, P. Salvador, J. J. Dannenberg, 
 V. G. Zakrzewski, S. Dapprich, A. D. Daniels, M. C. Strain, 
 O. Farkas, D. K. Malick, A. D. Rabuck, K. Raghavachari, 
 J. B. Foresman, J. V. Ortiz, Q. Cui, A. G. Baboul, S. Clifford, 
 J. Cioslowski, B. B. Stefanov, G. Liu, A. Liashenko, P. Piskorz, 
 I. Komaromi, R. L. Martin, D. J. Fox, T. Keith, M. A. Al-Laham, 
 C. Y. Peng, A. Nanayakkara, M. Challacombe, P. M. W. Gill, 
 B. Johnson, W. Chen, M. W. Wong, C. Gonzalez, and J. A. Pople, 
 Gaussian, Inc., Wallingford CT, 2004.
 
 ******************************************
 Gaussian 03:  AM64L-G03RevD.01 13-Oct-2005
                18-May-2010 
 ******************************************
 %chk=ppW3-4.xyz.1.chk
 %nproc=4
 Will use up to    4 processors via shared memory.
 %mem=4GB
 ----------------------------------------------
 # Opt=Tight Int=Ultrafine freq mp2/aug-cc-pvDZ
 ----------------------------------------------
 1/7=10,18=20,38=1/1,3;
 2/9=110,17=6,18=5,40=1/2;
 3/5=16,7=10,11=9,16=1,25=1,30=1,75=5/1,2,3;
 4//1;
 5/5=2,38=5/2;
 8/6=4,10=1/1;
 9/15=2,16=-3/6;
 10/5=1/2;
 6/7=2,8=2,9=2,10=2/1;
 7/12=2/1,2,3,16;
 1/18=20/3(3);
 2/9=110/2;
 6/7=2,8=2,9=2,10=2/1;
 99//99;
 2/9=110/2;
 3/5=16,7=10,11=9,16=1,25=1,30=1,75=5/1,2,3;
 4/5=5,16=3/1;
 5/5=2,38=5/2;
 8/6=4,10=1/1;
 9/15=2,16=-3/6;
 10/5=1/2;
 7/12=2/1,2,3,16;
 1/18=20/3(-8);
 2/9=110/2;
 6/7=2,8=2,9=2,10=2/1;
 99//99;
 -----
 Str 5
 -----
 Symbolic Z-matrix:
 Charge =  2 Multiplicity = 1
 O                     0.00158   0.9354   -0.00006 
 O                     2.3937   -0.53134   0.02119 
 O                    -2.3951   -0.53059  -0.02103 
 H                    -1.57141   0.04764   0.02904 
 H                    -0.01136   1.5351   -0.7724 
 H                     0.01372   1.53526   0.77218 
 H                     1.57036   0.04764  -0.02976 
 H                     2.74044  -0.86352  -0.83485 
 H                     3.10573  -0.21476   0.61837 
 H                    -3.10667  -0.21436  -0.61897 
 H                    -2.74226  -0.86076   0.83562 
 

 GradGradGradGradGradGradGradGradGradGradGradGradGradGradGradGradGradGrad
 Berny optimization.
 Initialization pass.
                           ----------------------------
                           !    Initial Parameters    !
                           ! (Angstroms and Degrees)  !
 --------------------------                            --------------------------
 ! Name  Definition              Value          Derivative Info.                !
 --------------------------------------------------------------------------------
 ! R1    R(1,4)                  1.8065         estimate D2E/DX2                !
 ! R2    R(1,5)                  0.9779         estimate D2E/DX2                !
 ! R3    R(1,6)                  0.9779         estimate D2E/DX2                !
 ! R4    R(1,7)                  1.8028         estimate D2E/DX2                !
 ! R5    R(2,7)                  1.0078         estimate D2E/DX2                !
 ! R6    R(2,8)                  0.9815         estimate D2E/DX2                !
 ! R7    R(2,9)                  0.9817         estimate D2E/DX2                !
 ! R8    R(3,4)                  1.0076         estimate D2E/DX2                !
 ! R9    R(3,10)                 0.9818         estimate D2E/DX2                !
 ! R10   R(3,11)                 0.9815         estimate D2E/DX2                !
 ! A1    A(4,1,5)              107.6121         estimate D2E/DX2                !
 ! A2    A(4,1,6)              107.43           estimate D2E/DX2                !
 ! A3    A(4,1,7)              121.0642         estimate D2E/DX2                !
 ! A4    A(5,1,6)              104.3391         estimate D2E/DX2                !
 ! A5    A(5,1,7)              107.4869         estimate D2E/DX2                !
 ! A6    A(6,1,7)              107.7141         estimate D2E/DX2                !
 ! A7    A(7,2,8)              116.0359         estimate D2E/DX2                !
 ! A8    A(7,2,9)              115.9769         estimate D2E/DX2                !
 ! A9    A(8,2,9)              112.547          estimate D2E/DX2                !
 ! A10   A(4,3,10)             115.97           estimate D2E/DX2                !
 ! A11   A(4,3,11)             116.0267         estimate D2E/DX2                !
 ! A12   A(10,3,11)            112.5546         estimate D2E/DX2                !
 ! A13   A(1,4,3)              173.2255         estimate D2E/DX2                !
 ! A14   A(1,7,2)              173.2026         estimate D2E/DX2                !
 ! D1    D(5,1,4,3)             90.7096         estimate D2E/DX2                !
 ! D2    D(6,1,4,3)           -157.4507         estimate D2E/DX2                !
 ! D3    D(7,1,4,3)            -33.2962         estimate D2E/DX2                !
 ! D4    D(4,1,7,2)            -33.9195         estimate D2E/DX2                !
 ! D5    D(5,1,7,2)           -157.9839         estimate D2E/DX2                !
 ! D6    D(6,1,7,2)             90.1021         estimate D2E/DX2                !
 ! D7    D(8,2,7,1)            119.632          estimate D2E/DX2                !
 ! D8    D(9,2,7,1)           -104.9109         estimate D2E/DX2                !
 ! D9    D(10,3,4,1)          -105.4049         estimate D2E/DX2                !
 ! D10   D(11,3,4,1)           119.145          estimate D2E/DX2                !
 --------------------------------------------------------------------------------
 Trust Radius=3.00D-01 FncErr=1.00D-07 GrdErr=1.00D-07
 Number of steps in this run=  44 maximum allowed number of steps= 100.
 GradGradGradGradGradGradGradGradGradGradGradGradGradGradGradGradGradGrad

                          Input orientation:                          
 ---------------------------------------------------------------------
 Center     Atomic     Atomic              Coordinates (Angstroms)
 Number     Number      Type              X           Y           Z
 ---------------------------------------------------------------------
    1          8             0        0.001582    0.935395   -0.000063
    2          8             0        2.393701   -0.531337    0.021193
    3          8             0       -2.395103   -0.530589   -0.021034
    4          1             0       -1.571412    0.047641    0.029035
    5          1             0       -0.011356    1.535096   -0.772401
    6          1             0        0.013722    1.535264    0.772176
    7          1             0        1.570362    0.047635   -0.029756
    8          1             0        2.740436   -0.863515   -0.834846
    9          1             0        3.105731   -0.214756    0.618372
   10          1             0       -3.106671   -0.214356   -0.618967
   11          1             0       -2.742255   -0.860756    0.835617
 ---------------------------------------------------------------------
                    Distance matrix (angstroms):
                    1          2          3          4          5
     1  O    0.000000
     2  O    2.806063   0.000000
     3  O    2.809564   4.788990   0.000000
     4  H    1.806451   4.007168   1.007633   0.000000
     5  H    0.977913   3.268675   3.242508   2.299695   0.000000
     6  H    0.977928   3.240234   3.270989   2.297375   1.544781
     7  H    1.802795   1.007815   4.007410   3.142324   2.294754
     8  H    3.381458   0.981514   5.210268   4.490939   3.650972
     9  H    3.367648   0.981750   5.546870   4.721423   3.835683
    10  H    3.371380   5.546564   0.981762   1.686882   3.558806
    11  H    3.384252   5.210552   0.981517   1.687197   3.972863
                    6          7          8          9         10
     6  H    0.000000
     7  H    2.297665   0.000000
     8  H    3.971351   1.687435   0.000000
     9  H    3.556226   1.687091   1.632841   0.000000
    10  H    3.838398   4.721276   5.886992   6.334426   0.000000
    11  H    3.652444   4.491404   5.731523   5.887568   1.632926
                   11
    11  H    0.000000
 Stoichiometry    H8O3(2+)
 Framework group  C1[X(H8O3)]
 Deg. of freedom    27
 Full point group                 C1
 Largest Abelian subgroup         C1      NOp   1
 Largest concise Abelian subgroup C1      NOp   1
                         Standard orientation:                         
 ---------------------------------------------------------------------
 Center     Atomic     Atomic              Coordinates (Angstroms)
 Number     Number      Type              X           Y           Z
 ---------------------------------------------------------------------
    1          8             0        0.001582    0.935395   -0.000063
    2          8             0        2.393701   -0.531337    0.021193
    3          8             0       -2.395103   -0.530589   -0.021034
    4          1             0       -1.571412    0.047641    0.029035
    5          1             0       -0.011356    1.535096   -0.772401
    6          1             0        0.013722    1.535264    0.772176
    7          1             0        1.570362    0.047635   -0.029756
    8          1             0        2.740436   -0.863515   -0.834846
    9          1             0        3.105731   -0.214756    0.618372
   10          1             0       -3.106671   -0.214356   -0.618967
   11          1             0       -2.742255   -0.860756    0.835617
 ---------------------------------------------------------------------
 Rotational constants (GHZ):     15.4387149      2.2325494      2.0029503
 Standard basis: Aug-CC-pVDZ (5D, 7F)
 There are   141 symmetry adapted basis functions of A   symmetry.
 Integral buffers will be    131072 words long.
 Raffenetti 1 integral format.
 Two-electron integral symmetry is turned on.
   141 basis functions,   217 primitive gaussians,   147 cartesian basis functions
    15 alpha electrons       15 beta electrons
       nuclear repulsion energy        90.9592898954 Hartrees.
 NAtoms=   11 NActive=   11 NUniq=   11 SFac= 7.50D-01 NAtFMM=   80 NAOKFM=F Big=F
 One-electron integrals computed using PRISM.
 NBasis=   141 RedAO= T  NBF=   141
 NBsUse=   141 1.00D-06 NBFU=   141
 Harris functional with IExCor=  205 diagonalized for initial guess.
 ExpMin= 2.97D-02 ExpMax= 1.17D+04 ExpMxC= 4.01D+02 IAcc=3 IRadAn=         5 AccDes= 0.00D+00
 HarFok:  IExCor= 205 AccDes= 0.00D+00 IRadAn=         5 IDoV=1
 ScaDFX=  1.000000  1.000000  1.000000  1.000000
 Initial guess orbital symmetries:
       Occupied  (A) (A) (A) (A) (A) (A) (A) (A) (A) (A) (A) (A)
                 (A) (A) (A)
       Virtual   (A) (A) (A) (A) (A) (A) (A) (A) (A) (A) (A) (A)
                 (A) (A) (A) (A) (A) (A) (A) (A) (A) (A) (A) (A)
                 (A) (A) (A) (A) (A) (A) (A) (A) (A) (A) (A) (A)
                 (A) (A) (A) (A) (A) (A) (A) (A) (A) (A) (A) (A)
                 (A) (A) (A) (A) (A) (A) (A) (A) (A) (A) (A) (A)
                 (A) (A) (A) (A) (A) (A) (A) (A) (A) (A) (A) (A)
                 (A) (A) (A) (A) (A) (A) (A) (A) (A) (A) (A) (A)
                 (A) (A) (A) (A) (A) (A) (A) (A) (A) (A) (A) (A)
                 (A) (A) (A) (A) (A) (A) (A) (A) (A) (A) (A) (A)
                 (A) (A) (A) (A) (A) (A) (A) (A) (A) (A) (A) (A)
                 (A) (A) (A) (A) (A) (A)
 The electronic state of the initial guess is 1-A.
 Requested convergence on RMS density matrix=1.00D-08 within 128 cycles.
 Requested convergence on MAX density matrix=1.00D-06.
 Requested convergence on             energy=1.00D-06.
 No special actions if energy rises.
 Keep R1 integrals in memory in canonical form, NReq=    61706230.
 SCF Done:  E(RHF) =  -228.622477176     A.U. after   10 cycles
             Convg  =    0.4004D-08             -V/T =  2.0019
             S**2   =   0.0000
 ExpMin= 2.97D-02 ExpMax= 1.17D+04 ExpMxC= 4.01D+02 IAcc=3 IRadAn=         5 AccDes= 0.00D+00
 HarFok:  IExCor= 205 AccDes= 0.00D+00 IRadAn=         5 IDoV=1
 ScaDFX=  1.000000  1.000000  1.000000  1.000000
 Range of M.O.s used for correlation:     4   141
 NBasis=   141 NAE=    15 NBE=    15 NFC=     3 NFV=     0
 NROrb=    138 NOA=    12 NOB=    12 NVA=   126 NVB=   126

 **** Warning!!: The largest alpha MO coefficient is  0.10976131D+02

 Fully direct method using O(ONN) memory.
 JobTyp=1 Pass  1:  I=   4 to  15 NPSUse=  4 ParTrn=T ParDer=T DoDerP=T.
 Spin components of T(2) and E(2):
     alpha-alpha T2 =       0.2127205821D-01 E2=     -0.8183776701D-01
     alpha-beta  T2 =       0.1236184668D+00 E2=     -0.4889999349D+00
     beta-beta   T2 =       0.2127205821D-01 E2=     -0.8183776701D-01
 ANorm=    0.1079890079D+01
 E2 =    -0.6526754689D+00 EUMP2 =    -0.22927515264540D+03
 DoAtom=TTTTTTTTTTT
          Differentiating once with respect to electric field.
                with respect to dipole field.
          Differentiating once with respect to nuclear coordinates.
          Store integrals in memory, NReq=    59992078.
          There are   1 degrees of freedom in the 1st order CPHF.
     1 vectors were produced by pass  0.
 AX will form   1 AO Fock derivatives at one time.
     1 vectors were produced by pass  1.
     1 vectors were produced by pass  2.
     1 vectors were produced by pass  3.
     1 vectors were produced by pass  4.
     1 vectors were produced by pass  5.
     1 vectors were produced by pass  6.
     1 vectors were produced by pass  7.
     1 vectors were produced by pass  8.
     1 vectors were produced by pass  9.
     1 vectors were produced by pass 10.
 Inv2:  IOpt= 1 Iter= 1 AM= 2.79D-16 Conv= 1.00D-12.
 Inverted reduced A of dimension   11 with in-core refinement.
 End of Minotr Frequency-dependent properties file   721 does not exist.

 **********************************************************************

            Population analysis using the SCF density.

 **********************************************************************

 Orbital symmetries:
       Occupied  (A) (A) (A) (A) (A) (A) (A) (A) (A) (A) (A) (A)
                 (A) (A) (A)
       Virtual   (A) (A) (A) (A) (A) (A) (A) (A) (A) (A) (A) (A)
                 (A) (A) (A) (A) (A) (A) (A) (A) (A) (A) (A) (A)
                 (A) (A) (A) (A) (A) (A) (A) (A) (A) (A) (A) (A)
                 (A) (A) (A) (A) (A) (A) (A) (A) (A) (A) (A) (A)
                 (A) (A) (A) (A) (A) (A) (A) (A) (A) (A) (A) (A)
                 (A) (A) (A) (A) (A) (A) (A) (A) (A) (A) (A) (A)
                 (A) (A) (A) (A) (A) (A) (A) (A) (A) (A) (A) (A)
                 (A) (A) (A) (A) (A) (A) (A) (A) (A) (A) (A) (A)
                 (A) (A) (A) (A) (A) (A) (A) (A) (A) (A) (A) (A)
                 (A) (A) (A) (A) (A) (A) (A) (A) (A) (A) (A) (A)
                 (A) (A) (A) (A) (A) (A)
 The electronic state is 1-A.
 Alpha  occ. eigenvalues --  -21.07452 -21.07423 -20.98666  -1.86380  -1.86324
 Alpha  occ. eigenvalues --   -1.75632  -1.20945  -1.20681  -1.20216  -1.20190
 Alpha  occ. eigenvalues --   -1.10914  -1.01618  -1.01524  -0.99742  -0.92552
 Alpha virt. eigenvalues --   -0.26314  -0.23312  -0.20353  -0.19986  -0.17994
 Alpha virt. eigenvalues --   -0.16214  -0.16035  -0.14643  -0.11746  -0.10113
 Alpha virt. eigenvalues --   -0.09890  -0.08962  -0.07904  -0.07452  -0.06916
 Alpha virt. eigenvalues --   -0.05322  -0.05040  -0.04975  -0.04449  -0.02953
 Alpha virt. eigenvalues --   -0.02595  -0.01780  -0.01573   0.00619   0.01044
 Alpha virt. eigenvalues --    0.02867   0.03732   0.05166   0.05975   0.09091
 Alpha virt. eigenvalues --    0.13551   0.14151   0.14977   0.19834   0.20204
 Alpha virt. eigenvalues --    0.20710   0.22247   0.23509   0.23820   0.24305
 Alpha virt. eigenvalues --    0.25023   0.27283   0.27769   0.29560   0.30642
 Alpha virt. eigenvalues --    0.31864   0.32569   0.34329   0.36357   0.40045
 Alpha virt. eigenvalues --    0.43539   0.46589   0.50113   0.50661   0.55795
 Alpha virt. eigenvalues --    0.56056   0.62545   0.65259   0.66567   0.66784
 Alpha virt. eigenvalues --    0.74628   0.78430   0.78484   0.79126   0.82883
 Alpha virt. eigenvalues --    0.83709   0.86741   0.94181   1.02892   1.06196
 Alpha virt. eigenvalues --    1.06659   1.09439   1.11136   1.12111   1.13060
 Alpha virt. eigenvalues --    1.24571   1.30844   1.51401   1.51700   1.53722
 Alpha virt. eigenvalues --    1.56117   1.58757   1.59478   1.59929   1.64896
 Alpha virt. eigenvalues --    1.64986   1.71789   1.71935   1.82118   1.86490
 Alpha virt. eigenvalues --    1.95826   1.99564   2.00591   2.05313   2.10453
 Alpha virt. eigenvalues --    2.11688   2.14052   2.14366   2.20574   2.24241
 Alpha virt. eigenvalues --    2.28525   2.34056   2.34289   2.37306   2.38379
 Alpha virt. eigenvalues --    2.40934   2.42947   2.47990   2.57839   2.59201
 Alpha virt. eigenvalues --    2.90674   3.23361   3.24623   3.26019   3.29291
 Alpha virt. eigenvalues --    3.35353   3.37611   3.50735   3.60178   3.64376
 Alpha virt. eigenvalues --    3.68876   3.78132   3.78547   3.87927   3.90435
 Alpha virt. eigenvalues --    3.92601
          Condensed to atoms (all electrons):
              1          2          3          4          5          6
     1  O    8.000735  -0.007310  -0.007239  -0.002459   0.357295   0.357392
     2  O   -0.007310   7.295690  -0.001031   0.000239  -0.002222  -0.001208
     3  O   -0.007239  -0.001031   7.294999   0.205567  -0.001200  -0.002198
     4  H   -0.002459   0.000239   0.205567   0.313672  -0.001359  -0.001520
     5  H    0.357295  -0.002222  -0.001200  -0.001359   0.395034  -0.036240
     6  H    0.357392  -0.001208  -0.002198  -0.001520  -0.036240   0.394954
     7  H   -0.003014   0.205225   0.000238   0.001477  -0.001530  -0.001354
     8  H   -0.003328   0.341890   0.000307  -0.000243  -0.000098  -0.000181
     9  H   -0.005337   0.345244  -0.000168   0.000145  -0.000353   0.000390
    10  H   -0.005320  -0.000168   0.345152  -0.022706   0.000388  -0.000350
    11  H   -0.003280   0.000307   0.341833  -0.022697  -0.000179  -0.000100
              7          8          9         10         11
     1  O   -0.003014  -0.003328  -0.005337  -0.005320  -0.003280
     2  O    0.205225   0.341890   0.345244  -0.000168   0.000307
     3  O    0.000238   0.000307  -0.000168   0.345152   0.341833
     4  H    0.001477  -0.000243   0.000145  -0.022706  -0.022697
     5  H   -0.001530  -0.000098  -0.000353   0.000388  -0.000179
     6  H   -0.001354  -0.000181   0.000390  -0.000350  -0.000100
     7  H    0.313282  -0.022690  -0.022680   0.000145  -0.000240
     8  H   -0.022690   0.359500  -0.021087   0.000014   0.000041
     9  H   -0.022680  -0.021087   0.355273   0.000006   0.000014
    10  H    0.000145   0.000014   0.000006   0.355178  -0.021079
    11  H   -0.000240   0.000041   0.000014  -0.021079   0.359405
 Mulliken atomic charges:
              1
     1  O   -0.678134
     2  O   -0.176656
     3  O   -0.176260
     4  H    0.529885
     5  H    0.290466
     6  H    0.290415
     7  H    0.531142
     8  H    0.345873
     9  H    0.348554
    10  H    0.348739
    11  H    0.345975
 Sum of Mulliken charges=   2.00000
 Atomic charges with hydrogens summed into heavy atoms:
              1
     1  O   -0.097253
     2  O    1.048913
     3  O    1.048340
     4  H    0.000000
     5  H    0.000000
     6  H    0.000000
     7  H    0.000000
     8  H    0.000000
     9  H    0.000000
    10  H    0.000000
    11  H    0.000000
 Sum of Mulliken charges=   2.00000
 Electronic spatial extent (au):  <R**2>=   524.1591
 Charge=     2.0000 electrons
 Dipole moment (field-independent basis, Debye):
    X=    -0.0113    Y=     0.7042    Z=    -0.0015  Tot=     0.7043
 Quadrupole moment (field-independent basis, Debye-Ang):
   XX=    45.8505   YY=    -9.8165   ZZ=   -10.1766
   XY=    -0.0087   XZ=    -1.6873   YZ=     0.0044
 Traceless Quadrupole moment (field-independent basis, Debye-Ang):
   XX=    37.2314   YY=   -18.4356   ZZ=   -18.7957
   XY=    -0.0087   XZ=    -1.6873   YZ=     0.0044
 Octapole moment (field-independent basis, Debye-Ang**2):
  XXX=    -0.1770  YYY=     9.5936  ZZZ=     0.0016  XYY=     0.0306
  XXY=   -29.3672  XXZ=     0.0096  XZZ=    -0.0230  YZZ=     0.4901
  YYZ=    -0.0096  XYZ=     9.4144
 Hexadecapole moment (field-independent basis, Debye-Ang**3):
 XXXX=   158.8412 YYYY=   -51.1523 ZZZZ=   -12.2683 XXXY=    -0.0485
 XXXZ=    11.7381 YYYX=    -0.0307 YYYZ=     0.0171 ZZZX=    -5.3754
 ZZZY=     0.0015 XXYY=   -65.7336 XXZZ=   -28.2919 YYZZ=    -5.1461
 XXYZ=     0.0129 YYXZ=    -9.8720 ZZXY=     0.0032
 N-N= 9.095928989535D+01 E-N=-7.103424638633D+02  KE= 2.281841218619D+02
 ***** Axes restored to original set *****
 -------------------------------------------------------------------
 Center     Atomic                   Forces (Hartrees/Bohr)
 Number     Number              X              Y              Z
 -------------------------------------------------------------------
    1          8          -0.000054761   -0.003554442   -0.000010935
    2          8          -0.003250170   -0.002751010    0.001861246
    3          8           0.003309857   -0.002720342   -0.001880342
    4          1          -0.004089494   -0.000230002    0.000680665
    5          1           0.000140490    0.001393902    0.001666659
    6          1          -0.000100745    0.001376650   -0.001674036
    7          1           0.004050859   -0.000193365   -0.000647994
    8          1           0.000087631    0.002182360    0.000574442
    9          1          -0.000540266    0.001157211   -0.001826233
   10          1           0.000534487    0.001162485    0.001816835
   11          1          -0.000087889    0.002176553   -0.000560307
 -------------------------------------------------------------------
 Cartesian Forces:  Max     0.004089494 RMS     0.001904880

 GradGradGradGradGradGradGradGradGradGradGradGradGradGradGradGradGradGrad
 Berny optimization.
 Internal  Forces:  Max     0.003394762 RMS     0.001524500
 Search for a local minimum.
 Step number   1 out of a maximum of  44
 All quantities printed in internal units (Hartrees-Bohrs-Radians)
 Second derivative matrix not updated -- first step.
     Eigenvalues ---    0.00230   0.00230   0.00925   0.00927   0.04948
     Eigenvalues ---    0.04952   0.05780   0.06042   0.06083   0.08333
     Eigenvalues ---    0.13166   0.14927   0.16000   0.16000   0.16000
     Eigenvalues ---    0.16000   0.16000   0.25000   0.25000   0.46340
     Eigenvalues ---    0.46371   0.51044   0.51046   0.51091   0.51092
     Eigenvalues ---    0.51789   0.517921000.000001000.000001000.00000
     Eigenvalues --- 1000.000001000.000001000.000001000.00000
 RFO step:  Lambda=-9.28012668D-04.
 Linear search not attempted -- first point.
 Iteration  1 RMS(Cart)=  0.03376735 RMS(Int)=  0.00145943
 Iteration  2 RMS(Cart)=  0.00132375 RMS(Int)=  0.00079493
 Iteration  3 RMS(Cart)=  0.00000215 RMS(Int)=  0.00079493
 Iteration  4 RMS(Cart)=  0.00000001 RMS(Int)=  0.00079493
 Variable       Old X    -DE/DX   Delta X   Delta X   Delta X     New X
                                 (Linear)    (Quad)   (Total)
    R1        3.41370   0.00010   0.00000   0.00163   0.00163   3.41533
    R2        1.84799  -0.00046   0.00000  -0.00089  -0.00089   1.84710
    R3        1.84802  -0.00048   0.00000  -0.00092  -0.00092   1.84709
    R4        3.40679   0.00011   0.00000   0.00176   0.00176   3.40855
    R5        1.90449  -0.00333   0.00000  -0.00718  -0.00718   1.89732
    R6        1.85479  -0.00121   0.00000  -0.00236  -0.00236   1.85243
    R7        1.85524  -0.00113   0.00000  -0.00221  -0.00221   1.85303
    R8        1.90415  -0.00339   0.00000  -0.00731  -0.00731   1.89684
    R9        1.85526  -0.00112   0.00000  -0.00219  -0.00219   1.85307
   R10        1.85480  -0.00119   0.00000  -0.00233  -0.00233   1.85247
    A1        1.87819   0.00010   0.00000   0.00181   0.00175   1.87994
    A2        1.87501  -0.00009   0.00000   0.00045   0.00040   1.87540
    A3        2.11297   0.00139   0.00000   0.01319   0.01311   2.12608
    A4        1.82106  -0.00186   0.00000  -0.02304  -0.02305   1.79801
    A5        1.87600  -0.00011   0.00000   0.00033   0.00027   1.87627
    A6        1.87997   0.00006   0.00000   0.00142   0.00136   1.88132
    A7        2.02521  -0.00170   0.00000  -0.02590  -0.02719   1.99802
    A8        2.02418  -0.00187   0.00000  -0.02694  -0.02824   1.99594
    A9        1.96432  -0.00057   0.00000  -0.02452  -0.02647   1.93784
   A10        2.02406  -0.00187   0.00000  -0.02692  -0.02821   1.99585
   A11        2.02505  -0.00171   0.00000  -0.02593  -0.02722   1.99783
   A12        1.96445  -0.00057   0.00000  -0.02448  -0.02643   1.93801
   A13        3.02336   0.00020   0.00000   0.00078   0.00078   3.02414
   A14        3.02296   0.00022   0.00000   0.00086   0.00086   3.02381
    D1        1.58318   0.00106   0.00000   0.01524   0.01526   1.59844
    D2       -2.74803  -0.00107   0.00000  -0.01015  -0.01017  -2.75820
    D3       -0.58113   0.00003   0.00000   0.00266   0.00266  -0.57847
    D4       -0.59201   0.00004   0.00000   0.00293   0.00292  -0.58908
    D5       -2.75734  -0.00109   0.00000  -0.01031  -0.01033  -2.76767
    D6        1.57258   0.00108   0.00000   0.01535   0.01536   1.58794
    D7        2.08797   0.00261   0.00000   0.05325   0.05191   2.13988
    D8       -1.83104  -0.00258   0.00000  -0.04966  -0.04832  -1.87937
    D9       -1.83966  -0.00257   0.00000  -0.04956  -0.04822  -1.88789
   D10        2.07947   0.00261   0.00000   0.05325   0.05191   2.13139
         Item               Value     Threshold  Converged?
 Maximum Force            0.003395     0.000015     NO 
 RMS     Force            0.001524     0.000010     NO 
 Maximum Displacement     0.079547     0.000060     NO 
 RMS     Displacement     0.033877     0.000040     NO 
 Predicted change in Energy=-4.334175D-04
 GradGradGradGradGradGradGradGradGradGradGradGradGradGradGradGradGradGrad

                          Input orientation:                          
 ---------------------------------------------------------------------
 Center     Atomic     Atomic              Coordinates (Angstroms)
 Number     Number      Type              X           Y           Z
 ---------------------------------------------------------------------
    1          8             0        0.001487    0.903680   -0.000112
    2          8             0        2.401102   -0.545201    0.030531
    3          8             0       -2.402512   -0.544437   -0.030319
    4          1             0       -1.578148    0.025826    0.022324
    5          1             0       -0.007206    1.512005   -0.765131
    6          1             0        0.009666    1.512050    0.764876
    7          1             0        1.576993    0.025789   -0.023013
    8          1             0        2.761015   -0.821421   -0.838425
    9          1             0        3.108074   -0.182132    0.604908
   10          1             0       -3.109057   -0.181732   -0.605491
   11          1             0       -2.762675   -0.818705    0.839176
 ---------------------------------------------------------------------
                    Distance matrix (angstroms):
                    1          2          3          4          5
     1  O    0.000000
     2  O    2.803274   0.000000
     3  O    2.806629   4.804000   0.000000
     4  H    1.807312   4.020021   1.003766   0.000000
     5  H    0.977441   3.265750   3.241357   2.301450   0.000000
     6  H    0.977440   3.238906   3.268039   2.298130   1.530101
     7  H    1.803728   1.004017   4.020159   3.155467   2.295488
     8  H    3.360615   0.980265   5.233714   4.504115   3.621228
     9  H    3.346030   0.980581   5.558898   4.726874   3.801589
    10  H    3.349640   5.558641   0.980603   1.667607   3.537755
    11  H    3.363273   5.233861   0.980287   1.668408   3.949509
                    6          7          8          9         10
     6  H    0.000000
     7  H    2.299186   0.000000
     8  H    3.947858   1.668702   0.000000
     9  H    3.534965   1.667851   1.616277   0.000000
    10  H    3.804371   4.726671   5.909416   6.333861   0.000000
    11  H    3.622681   4.504360   5.772824   5.909806   1.616409
                   11
    11  H    0.000000
 Stoichiometry    H8O3(2+)
 Framework group  C1[X(H8O3)]
 Deg. of freedom    27
 Full point group                 C1
 Largest Abelian subgroup         C1      NOp   1
 Largest concise Abelian subgroup C1      NOp   1
                         Standard orientation:                         
 ---------------------------------------------------------------------
 Center     Atomic     Atomic              Coordinates (Angstroms)
 Number     Number      Type              X           Y           Z
 ---------------------------------------------------------------------
    1          8             0        0.001499    0.916679   -0.000066
    2          8             0        2.401184   -0.532174    0.026019
    3          8             0       -2.402536   -0.531464   -0.025864
    4          1             0       -1.578082    0.038805    0.025270
    5          1             0       -0.008630    1.525046   -0.765035
    6          1             0        0.011098    1.525009    0.764939
    7          1             0        1.576970    0.038809   -0.025955
    8          1             0        2.759477   -0.808343   -0.843622
    9          1             0        3.109223   -0.169128    0.599096
   10          1             0       -3.110157   -0.168737   -0.599697
   11          1             0       -2.761072   -0.805785    0.844286
 ---------------------------------------------------------------------
 Rotational constants (GHZ):     15.8509780      2.2187655      1.9980009
 Standard basis: Aug-CC-pVDZ (5D, 7F)
 There are   141 symmetry adapted basis functions of A   symmetry.
 Integral buffers will be    131072 words long.
 Raffenetti 1 integral format.
 Two-electron integral symmetry is turned on.
   141 basis functions,   217 primitive gaussians,   147 cartesian basis functions
    15 alpha electrons       15 beta electrons
       nuclear repulsion energy        91.0637931397 Hartrees.
 NAtoms=   11 NActive=   11 NUniq=   11 SFac= 7.50D-01 NAtFMM=   80 NAOKFM=F Big=F
 One-electron integrals computed using PRISM.
 NBasis=   141 RedAO= T  NBF=   141
 NBsUse=   141 1.00D-06 NBFU=   141
 Initial guess read from the read-write file:
 Initial guess orbital symmetries:
       Occupied  (A) (A) (A) (A) (A) (A) (A) (A) (A) (A) (A) (A)
                 (A) (A) (A)
       Virtual   (A) (A) (A) (A) (A) (A) (A) (A) (A) (A) (A) (A)
                 (A) (A) (A) (A) (A) (A) (A) (A) (A) (A) (A) (A)
                 (A) (A) (A) (A) (A) (A) (A) (A) (A) (A) (A) (A)
                 (A) (A) (A) (A) (A) (A) (A) (A) (A) (A) (A) (A)
                 (A) (A) (A) (A) (A) (A) (A) (A) (A) (A) (A) (A)
                 (A) (A) (A) (A) (A) (A) (A) (A) (A) (A) (A) (A)
                 (A) (A) (A) (A) (A) (A) (A) (A) (A) (A) (A) (A)
                 (A) (A) (A) (A) (A) (A) (A) (A) (A) (A) (A) (A)
                 (A) (A) (A) (A) (A) (A) (A) (A) (A) (A) (A) (A)
                 (A) (A) (A) (A) (A) (A) (A) (A) (A) (A) (A) (A)
                 (A) (A) (A) (A) (A) (A)
 Harris functional with IExCor=  205 diagonalized for initial guess.
 ExpMin= 2.97D-02 ExpMax= 1.17D+04 ExpMxC= 4.01D+02 IAcc=3 IRadAn=         5 AccDes= 0.00D+00
 HarFok:  IExCor= 205 AccDes= 0.00D+00 IRadAn=         5 IDoV=1
 ScaDFX=  1.000000  1.000000  1.000000  1.000000
 Requested convergence on RMS density matrix=1.00D-08 within 128 cycles.
 Requested convergence on MAX density matrix=1.00D-06.
 Requested convergence on             energy=1.00D-06.
 No special actions if energy rises.
 Keep R1 integrals in memory in canonical form, NReq=    61706230.
 SCF Done:  E(RHF) =  -228.623088356     A.U. after    9 cycles
             Convg  =    0.4649D-08             -V/T =  2.0018
             S**2   =   0.0000
 ExpMin= 2.97D-02 ExpMax= 1.17D+04 ExpMxC= 4.01D+02 IAcc=3 IRadAn=         5 AccDes= 0.00D+00
 HarFok:  IExCor= 205 AccDes= 0.00D+00 IRadAn=         5 IDoV=1
 ScaDFX=  1.000000  1.000000  1.000000  1.000000
 Range of M.O.s used for correlation:     4   141
 NBasis=   141 NAE=    15 NBE=    15 NFC=     3 NFV=     0
 NROrb=    138 NOA=    12 NOB=    12 NVA=   126 NVB=   126

 **** Warning!!: The largest alpha MO coefficient is  0.11462335D+02

 Fully direct method using O(ONN) memory.
 JobTyp=1 Pass  1:  I=   4 to  15 NPSUse=  4 ParTrn=T ParDer=T DoDerP=T.
 Spin components of T(2) and E(2):
     alpha-alpha T2 =       0.2125513669D-01 E2=     -0.8180953649D-01
     alpha-beta  T2 =       0.1235826167D+00 E2=     -0.4890706619D+00
     beta-beta   T2 =       0.2125513669D-01 E2=     -0.8180953649D-01
 ANorm=    0.1079857810D+01
 E2 =    -0.6526897349D+00 EUMP2 =    -0.22927577809100D+03
 DoAtom=TTTTTTTTTTT
          Differentiating once with respect to electric field.
                with respect to dipole field.
          Differentiating once with respect to nuclear coordinates.
          Store integrals in memory, NReq=    59992078.
          There are   1 degrees of freedom in the 1st order CPHF.
     1 vectors were produced by pass  0.
 AX will form   1 AO Fock derivatives at one time.
     1 vectors were produced by pass  1.
     1 vectors were produced by pass  2.
     1 vectors were produced by pass  3.
     1 vectors were produced by pass  4.
     1 vectors were produced by pass  5.
     1 vectors were produced by pass  6.
     1 vectors were produced by pass  7.
     1 vectors were produced by pass  8.
     1 vectors were produced by pass  9.
     1 vectors were produced by pass 10.
 Inv2:  IOpt= 1 Iter= 1 AM= 5.46D-16 Conv= 1.00D-12.
 Inverted reduced A of dimension   11 with in-core refinement.
 End of Minotr Frequency-dependent properties file   721 does not exist.
 ***** Axes restored to original set *****
 -------------------------------------------------------------------
 Center     Atomic                   Forces (Hartrees/Bohr)
 Number     Number              X              Y              Z
 -------------------------------------------------------------------
    1          8          -0.000044601   -0.000938820   -0.000017639
    2          8          -0.001348008   -0.002453962    0.001421940
    3          8           0.001351691   -0.002456945   -0.001429971
    4          1          -0.000996355    0.001089949    0.000577751
    5          1           0.000032894    0.000390678   -0.000354068
    6          1          -0.000002194    0.000385449    0.000357287
    7          1           0.001008677    0.001092921   -0.000552457
    8          1           0.000377632    0.000410563   -0.001190813
    9          1           0.000700161    0.001033633    0.000250078
   10          1          -0.000700254    0.001032580   -0.000250733
   11          1          -0.000379643    0.000413954    0.001188626
 -------------------------------------------------------------------
 Cartesian Forces:  Max     0.002456945 RMS     0.000999063

 GradGradGradGradGradGradGradGradGradGradGradGradGradGradGradGradGradGrad
 Berny optimization.
 Internal  Forces:  Max     0.001078559 RMS     0.000643399
 Search for a local minimum.
 Step number   2 out of a maximum of  44
 All quantities printed in internal units (Hartrees-Bohrs-Radians)
 Update second derivatives using D2CorX and points  1  2
 Trust test= 1.44D+00 RLast= 1.27D-01 DXMaxT set to 3.80D-01
     Eigenvalues ---    0.00230   0.00230   0.00925   0.00927   0.03118
     Eigenvalues ---    0.05604   0.05941   0.06059   0.06193   0.08552
     Eigenvalues ---    0.13276   0.14973   0.15599   0.16000   0.16000
     Eigenvalues ---    0.16000   0.16014   0.25000   0.25132   0.46355
     Eigenvalues ---    0.47393   0.51045   0.51067   0.51092   0.51712
     Eigenvalues ---    0.51791   0.552231000.000001000.000001000.00000
     Eigenvalues --- 1000.000001000.000001000.000001000.00000
 RFO step:  Lambda=-9.19037861D-05.
 Quartic linear search produced a step of  0.38241.
 Iteration  1 RMS(Cart)=  0.01917443 RMS(Int)=  0.00066791
 Iteration  2 RMS(Cart)=  0.00035489 RMS(Int)=  0.00056002
 Iteration  3 RMS(Cart)=  0.00000033 RMS(Int)=  0.00056002
 Variable       Old X    -DE/DX   Delta X   Delta X   Delta X     New X
                                 (Linear)    (Quad)   (Total)
    R1        3.41533   0.00060   0.00062   0.01306   0.01368   3.42901
    R2        1.84710   0.00052  -0.00034   0.00162   0.00128   1.84838
    R3        1.84709   0.00052  -0.00035   0.00163   0.00128   1.84837
    R4        3.40855   0.00061   0.00067   0.01314   0.01382   3.42237
    R5        1.89732   0.00038  -0.00274   0.00305   0.00030   1.89762
    R6        1.85243   0.00108  -0.00090   0.00354   0.00264   1.85507
    R7        1.85303   0.00103  -0.00084   0.00338   0.00254   1.85557
    R8        1.89684   0.00038  -0.00279   0.00308   0.00028   1.89713
    R9        1.85307   0.00103  -0.00084   0.00338   0.00254   1.85561
   R10        1.85247   0.00108  -0.00089   0.00353   0.00264   1.85511
    A1        1.87994  -0.00015   0.00067  -0.00155  -0.00091   1.87903
    A2        1.87540  -0.00020   0.00015  -0.00172  -0.00159   1.87381
    A3        2.12608   0.00069   0.00502   0.00280   0.00778   2.13387
    A4        1.79801  -0.00007  -0.00881   0.00466  -0.00417   1.79384
    A5        1.87627  -0.00022   0.00010  -0.00182  -0.00175   1.87451
    A6        1.88132  -0.00018   0.00052  -0.00183  -0.00134   1.87999
    A7        1.99802  -0.00093  -0.01040  -0.00731  -0.01856   1.97946
    A8        1.99594  -0.00091  -0.01080  -0.00688  -0.01853   1.97741
    A9        1.93784  -0.00006  -0.01012  -0.00285  -0.01435   1.92349
   A10        1.99585  -0.00091  -0.01079  -0.00687  -0.01851   1.97733
   A11        1.99783  -0.00092  -0.01041  -0.00729  -0.01855   1.97929
   A12        1.93801  -0.00007  -0.01011  -0.00289  -0.01437   1.92364
   A13        3.02414  -0.00052   0.00030  -0.00307  -0.00277   3.02137
   A14        3.02381  -0.00050   0.00033  -0.00300  -0.00267   3.02114
    D1        1.59844   0.00012   0.00583  -0.00237   0.00347   1.60191
    D2       -2.75820  -0.00011  -0.00389   0.00147  -0.00242  -2.76062
    D3       -0.57847   0.00001   0.00102  -0.00054   0.00047  -0.57800
    D4       -0.58908   0.00002   0.00112  -0.00034   0.00077  -0.58831
    D5       -2.76767  -0.00013  -0.00395   0.00136  -0.00259  -2.77026
    D6        1.58794   0.00013   0.00588  -0.00229   0.00359   1.59153
    D7        2.13988   0.00094   0.01985   0.00830   0.02716   2.16704
    D8       -1.87937  -0.00093  -0.01848  -0.00960  -0.02709  -1.90645
    D9       -1.88789  -0.00093  -0.01844  -0.00950  -0.02694  -1.91483
   D10        2.13139   0.00094   0.01985   0.00842   0.02728   2.15866
         Item               Value     Threshold  Converged?
 Maximum Force            0.001079     0.000015     NO 
 RMS     Force            0.000643     0.000010     NO 
 Maximum Displacement     0.037570     0.000060     NO 
 RMS     Displacement     0.019146     0.000040     NO 
 Predicted change in Energy=-1.186397D-04
 GradGradGradGradGradGradGradGradGradGradGradGradGradGradGradGradGradGrad

                          Input orientation:                          
 ---------------------------------------------------------------------
 Center     Atomic     Atomic              Coordinates (Angstroms)
 Number     Number      Type              X           Y           Z
 ---------------------------------------------------------------------
    1          8             0        0.001418    0.890349   -0.000171
    2          8             0        2.411766   -0.554637    0.036379
    3          8             0       -2.413199   -0.553879   -0.036125
    4          1             0       -1.588003    0.015160    0.019485
    5          1             0       -0.005376    1.500760   -0.764415
    6          1             0        0.008018    1.500667    0.764145
    7          1             0        1.586770    0.015062   -0.020162
    8          1             0        2.776218   -0.801540   -0.841045
    9          1             0        3.115807   -0.163848    0.598326
   10          1             0       -3.116857   -0.163505   -0.598881
   11          1             0       -2.777824   -0.798867    0.841789
 ---------------------------------------------------------------------
                    Distance matrix (angstroms):
                    1          2          3          4          5
     1  O    0.000000
     2  O    2.810534   0.000000
     3  O    2.813798   4.825510   0.000000
     4  H    1.814552   4.040186   1.003916   0.000000
     5  H    0.978119   3.272385   3.248008   2.307859   0.000000
     6  H    0.978115   3.245293   3.274734   2.304025   1.528618
     7  H    1.811041   1.004177   4.040260   3.175020   2.301335
     8  H    3.356944   0.981661   5.257308   4.522602   3.611609
     9  H    3.341998   0.981924   5.578939   4.742671   3.790748
    10  H    3.345549   5.578728   0.981947   1.658823   3.532491
    11  H    3.359543   5.257393   0.981684   1.659668   3.943937
                    6          7          8          9         10
     6  H    0.000000
     7  H    2.305345   0.000000
     8  H    3.942045   1.659962   0.000000
     9  H    3.529371   1.659063   1.610515   0.000000
    10  H    3.793699   4.742458   5.932459   6.346606   0.000000
    11  H    3.613142   4.522734   5.803389   5.932741   1.610639
                   11
    11  H    0.000000
 Stoichiometry    H8O3(2+)
 Framework group  C1[X(H8O3)]
 Deg. of freedom    27
 Full point group                 C1
 Largest Abelian subgroup         C1      NOp   1
 Largest concise Abelian subgroup C1      NOp   1
                         Standard orientation:                         
 ---------------------------------------------------------------------
 Center     Atomic     Atomic              Coordinates (Angstroms)
 Number     Number      Type              X           Y           Z
 ---------------------------------------------------------------------
    1          8             0        0.001448    0.910394   -0.000073
    2          8             0        2.411917   -0.534565    0.028805
    3          8             0       -2.413250   -0.533861   -0.028658
    4          1             0       -1.587892    0.035182    0.024441
    5          1             0       -0.007735    1.520888   -0.764225
    6          1             0        0.010423    1.520629    0.764285
    7          1             0        1.586742    0.035130   -0.025101
    8          1             0        2.773636   -0.781367   -0.849777
    9          1             0        3.117702   -0.143827    0.588598
   10          1             0       -3.118664   -0.143435   -0.589176
   11          1             0       -2.775134   -0.778950    0.850361
 ---------------------------------------------------------------------
 Rotational constants (GHZ):     15.9698660      2.1996792      1.9843153
 Standard basis: Aug-CC-pVDZ (5D, 7F)
 There are   141 symmetry adapted basis functions of A   symmetry.
 Integral buffers will be    131072 words long.
 Raffenetti 1 integral format.
 Two-electron integral symmetry is turned on.
   141 basis functions,   217 primitive gaussians,   147 cartesian basis functions
    15 alpha electrons       15 beta electrons
       nuclear repulsion energy        90.8975777579 Hartrees.
 NAtoms=   11 NActive=   11 NUniq=   11 SFac= 7.50D-01 NAtFMM=   80 NAOKFM=F Big=F
 One-electron integrals computed using PRISM.
 NBasis=   141 RedAO= T  NBF=   141
 NBsUse=   141 1.00D-06 NBFU=   141
 Initial guess read from the read-write file:
 Initial guess orbital symmetries:
       Occupied  (A) (A) (A) (A) (A) (A) (A) (A) (A) (A) (A) (A)
                 (A) (A) (A)
       Virtual   (A) (A) (A) (A) (A) (A) (A) (A) (A) (A) (A) (A)
                 (A) (A) (A) (A) (A) (A) (A) (A) (A) (A) (A) (A)
                 (A) (A) (A) (A) (A) (A) (A) (A) (A) (A) (A) (A)
                 (A) (A) (A) (A) (A) (A) (A) (A) (A) (A) (A) (A)
                 (A) (A) (A) (A) (A) (A) (A) (A) (A) (A) (A) (A)
                 (A) (A) (A) (A) (A) (A) (A) (A) (A) (A) (A) (A)
                 (A) (A) (A) (A) (A) (A) (A) (A) (A) (A) (A) (A)
                 (A) (A) (A) (A) (A) (A) (A) (A) (A) (A) (A) (A)
                 (A) (A) (A) (A) (A) (A) (A) (A) (A) (A) (A) (A)
                 (A) (A) (A) (A) (A) (A) (A) (A) (A) (A) (A) (A)
                 (A) (A) (A) (A) (A) (A)
 Harris functional with IExCor=  205 diagonalized for initial guess.
 ExpMin= 2.97D-02 ExpMax= 1.17D+04 ExpMxC= 4.01D+02 IAcc=3 IRadAn=         5 AccDes= 0.00D+00
 HarFok:  IExCor= 205 AccDes= 0.00D+00 IRadAn=         5 IDoV=1
 ScaDFX=  1.000000  1.000000  1.000000  1.000000
 Requested convergence on RMS density matrix=1.00D-08 within 128 cycles.
 Requested convergence on MAX density matrix=1.00D-06.
 Requested convergence on             energy=1.00D-06.
 No special actions if energy rises.
 Keep R1 integrals in memory in canonical form, NReq=    61706230.
 SCF Done:  E(RHF) =  -228.622687608     A.U. after    9 cycles
             Convg  =    0.2609D-08             -V/T =  2.0018
             S**2   =   0.0000
 ExpMin= 2.97D-02 ExpMax= 1.17D+04 ExpMxC= 4.01D+02 IAcc=3 IRadAn=         5 AccDes= 0.00D+00
 HarFok:  IExCor= 205 AccDes= 0.00D+00 IRadAn=         5 IDoV=1
 ScaDFX=  1.000000  1.000000  1.000000  1.000000
 Range of M.O.s used for correlation:     4   141
 NBasis=   141 NAE=    15 NBE=    15 NFC=     3 NFV=     0
 NROrb=    138 NOA=    12 NOB=    12 NVA=   126 NVB=   126

 **** Warning!!: The largest alpha MO coefficient is  0.11533709D+02

 Fully direct method using O(ONN) memory.
 JobTyp=1 Pass  1:  I=   4 to  15 NPSUse=  4 ParTrn=T ParDer=T DoDerP=T.
 Spin components of T(2) and E(2):
     alpha-alpha T2 =       0.2129377012D-01 E2=     -0.8184806437D-01
     alpha-beta  T2 =       0.1238942444D+00 E2=     -0.4895146197D+00
     beta-beta   T2 =       0.2129377012D-01 E2=     -0.8184806437D-01
 ANorm=    0.1080037863D+01
 E2 =    -0.6532107484D+00 EUMP2 =    -0.22927589835633D+03
 DoAtom=TTTTTTTTTTT
          Differentiating once with respect to electric field.
                with respect to dipole field.
          Differentiating once with respect to nuclear coordinates.
          Store integrals in memory, NReq=    59992078.
          There are   1 degrees of freedom in the 1st order CPHF.
     1 vectors were produced by pass  0.
 AX will form   1 AO Fock derivatives at one time.
     1 vectors were produced by pass  1.
     1 vectors were produced by pass  2.
     1 vectors were produced by pass  3.
     1 vectors were produced by pass  4.
     1 vectors were produced by pass  5.
     1 vectors were produced by pass  6.
     1 vectors were produced by pass  7.
     1 vectors were produced by pass  8.
     1 vectors were produced by pass  9.
     1 vectors were produced by pass 10.
 Inv2:  IOpt= 1 Iter= 1 AM= 2.97D-16 Conv= 1.00D-12.
 Inverted reduced A of dimension   11 with in-core refinement.
 End of Minotr Frequency-dependent properties file   721 does not exist.
 ***** Axes restored to original set *****
 -------------------------------------------------------------------
 Center     Atomic                   Forces (Hartrees/Bohr)
 Number     Number              X              Y              Z
 -------------------------------------------------------------------
    1          8          -0.000030140    0.000401360   -0.000014343
    2          8          -0.000246301   -0.000668703    0.000339880
    3          8           0.000237187   -0.000677426   -0.000348495
    4          1          -0.000502298    0.000653500    0.000280898
    5          1          -0.000014187   -0.000227945   -0.000096907
    6          1           0.000033284   -0.000229347    0.000100406
    7          1           0.000523675    0.000647923   -0.000258928
    8          1           0.000112080   -0.000157089   -0.000503258
    9          1           0.000322881    0.000206640    0.000349378
   10          1          -0.000322161    0.000205836   -0.000348775
   11          1          -0.000114019   -0.000154749    0.000500144
 -------------------------------------------------------------------
 Cartesian Forces:  Max     0.000677426 RMS     0.000355957

 GradGradGradGradGradGradGradGradGradGradGradGradGradGradGradGradGradGrad
 Berny optimization.
 Internal  Forces:  Max     0.000808199 RMS     0.000340952
 Search for a local minimum.
 Step number   3 out of a maximum of  44
 All quantities printed in internal units (Hartrees-Bohrs-Radians)
 Update second derivatives using D2CorX and points  1  2  3
 Trust test= 1.01D+00 RLast= 7.26D-02 DXMaxT set to 3.80D-01
     Eigenvalues ---    0.00230   0.00230   0.00925   0.00927   0.03156
     Eigenvalues ---    0.05530   0.06062   0.06511   0.06752   0.08775
     Eigenvalues ---    0.13326   0.14997   0.15277   0.16000   0.16000
     Eigenvalues ---    0.16001   0.16073   0.25000   0.25465   0.46355
     Eigenvalues ---    0.47740   0.51045   0.51067   0.51092   0.51791
     Eigenvalues ---    0.51871   0.543561000.000001000.000001000.00000
     Eigenvalues --- 1000.000001000.000001000.000001000.00000
 RFO step:  Lambda=-2.14055681D-05.
 Quartic linear search produced a step of  0.11641.
 Iteration  1 RMS(Cart)=  0.00606218 RMS(Int)=  0.00004607
 Iteration  2 RMS(Cart)=  0.00000563 RMS(Int)=  0.00003381
 Iteration  3 RMS(Cart)=  0.00000000 RMS(Int)=  0.00003381
 Variable       Old X    -DE/DX   Delta X   Delta X   Delta X     New X
                                 (Linear)    (Quad)   (Total)
    R1        3.42901   0.00060   0.00159   0.00986   0.01145   3.44046
    R2        1.84838  -0.00007   0.00015  -0.00026  -0.00011   1.84826
    R3        1.84837  -0.00006   0.00015  -0.00026  -0.00011   1.84826
    R4        3.42237   0.00061   0.00161   0.00994   0.01154   3.43392
    R5        1.89762   0.00052   0.00004   0.00076   0.00080   1.89842
    R6        1.85507   0.00053   0.00031   0.00082   0.00113   1.85620
    R7        1.85557   0.00051   0.00030   0.00080   0.00110   1.85667
    R8        1.89713   0.00053   0.00003   0.00078   0.00082   1.89794
    R9        1.85561   0.00051   0.00030   0.00080   0.00110   1.85671
   R10        1.85511   0.00053   0.00031   0.00082   0.00113   1.85624
    A1        1.87903  -0.00015  -0.00011  -0.00091  -0.00101   1.87802
    A2        1.87381  -0.00011  -0.00019  -0.00072  -0.00090   1.87291
    A3        2.13387   0.00034   0.00091   0.00226   0.00316   2.13703
    A4        1.79384   0.00022  -0.00049   0.00116   0.00067   1.79451
    A5        1.87451  -0.00013  -0.00020  -0.00079  -0.00099   1.87352
    A6        1.87999  -0.00017  -0.00016  -0.00108  -0.00124   1.87875
    A7        1.97946  -0.00006  -0.00216  -0.00040  -0.00261   1.97685
    A8        1.97741  -0.00001  -0.00216  -0.00015  -0.00236   1.97505
    A9        1.92349   0.00010  -0.00167   0.00053  -0.00122   1.92227
   A10        1.97733  -0.00001  -0.00216  -0.00016  -0.00237   1.97497
   A11        1.97929  -0.00005  -0.00216  -0.00039  -0.00260   1.97669
   A12        1.92364   0.00010  -0.00167   0.00052  -0.00124   1.92241
   A13        3.02137  -0.00081  -0.00032  -0.00325  -0.00357   3.01780
   A14        3.02114  -0.00079  -0.00031  -0.00319  -0.00350   3.01764
    D1        1.60191  -0.00006   0.00040   0.00153   0.00193   1.60384
    D2       -2.76062   0.00007  -0.00028   0.00211   0.00183  -2.75879
    D3       -0.57800   0.00000   0.00006   0.00170   0.00175  -0.57624
    D4       -0.58831   0.00000   0.00009   0.00184   0.00193  -0.58638
    D5       -2.77026   0.00006  -0.00030   0.00207   0.00177  -2.76849
    D6        1.59153  -0.00005   0.00042   0.00160   0.00202   1.59355
    D7        2.16704  -0.00004   0.00316  -0.00081   0.00229   2.16933
    D8       -1.90645   0.00003  -0.00315  -0.00054  -0.00364  -1.91009
    D9       -1.91483   0.00003  -0.00314  -0.00040  -0.00347  -1.91830
   D10        2.15866  -0.00004   0.00318  -0.00065   0.00247   2.16113
         Item               Value     Threshold  Converged?
 Maximum Force            0.000808     0.000015     NO 
 RMS     Force            0.000341     0.000010     NO 
 Maximum Displacement     0.013560     0.000060     NO 
 RMS     Displacement     0.006061     0.000040     NO 
 Predicted change in Energy=-1.233564D-05
 GradGradGradGradGradGradGradGradGradGradGradGradGradGradGradGradGradGrad

                          Input orientation:                          
 ---------------------------------------------------------------------
 Center     Atomic     Atomic              Coordinates (Angstroms)
 Number     Number      Type              X           Y           Z
 ---------------------------------------------------------------------
    1          8             0        0.001385    0.890531   -0.000196
    2          8             0        2.417915   -0.556286    0.036732
    3          8             0       -2.419356   -0.555539   -0.036462
    4          1             0       -1.594722    0.014947    0.020466
    5          1             0       -0.005848    1.500691   -0.764561
    6          1             0        0.008599    1.500516    0.764305
    7          1             0        1.593458    0.014801   -0.021136
    8          1             0        2.783369   -0.800201   -0.841780
    9          1             0        3.121620   -0.163247    0.598547
   10          1             0       -3.122684   -0.162972   -0.599118
   11          1             0       -2.785000   -0.797519    0.842529
 ---------------------------------------------------------------------
                    Distance matrix (angstroms):
                    1          2          3          4          5
     1  O    0.000000
     2  O    2.816782   0.000000
     3  O    2.820004   4.837825   0.000000
     4  H    1.820613   4.053125   1.004348   0.000000
     5  H    0.978059   3.278391   3.253187   2.312622   0.000000
     6  H    0.978057   3.250323   3.280785   2.308863   1.528934
     7  H    1.817150   1.004599   4.053171   3.188451   2.306149
     8  H    3.362480   0.982259   5.270364   4.536035   3.616600
     9  H    3.347358   0.982505   5.591023   4.754977   3.795761
    10  H    3.350878   5.590817   0.982528   1.658375   3.536921
    11  H    3.365062   5.270468   0.982281   1.659111   3.948188
                    6          7          8          9         10
     6  H    0.000000
     7  H    2.309987   0.000000
     8  H    3.946156   1.659390   0.000000
     9  H    3.533621   1.658610   1.610797   0.000000
    10  H    3.798822   4.754751   5.945284   6.358123   0.000000
    11  H    3.618187   4.536152   5.817528   5.945585   1.610908
                   11
    11  H    0.000000
 Stoichiometry    H8O3(2+)
 Framework group  C1[X(H8O3)]
 Deg. of freedom    27
 Full point group                 C1
 Largest Abelian subgroup         C1      NOp   1
 Largest concise Abelian subgroup C1      NOp   1
                         Standard orientation:                         
 ---------------------------------------------------------------------
 Center     Atomic     Atomic              Coordinates (Angstroms)
 Number     Number      Type              X           Y           Z
 ---------------------------------------------------------------------
    1          8             0        0.001427    0.911260   -0.000080
    2          8             0        2.418076   -0.535536    0.029048
    3          8             0       -2.419402   -0.534831   -0.028900
    4          1             0       -1.594598    0.035656    0.025501
    5          1             0       -0.008221    1.521517   -0.764340
    6          1             0        0.011044    1.521148    0.764472
    7          1             0        1.593434    0.035550   -0.026148
    8          1             0        2.780762   -0.779335   -0.850642
    9          1             0        3.123544   -0.142561    0.588693
   10          1             0       -3.124503   -0.142200   -0.589287
   11          1             0       -2.782271   -0.776926    0.851208
 ---------------------------------------------------------------------
 Rotational constants (GHZ):     15.9403263      2.1887067      1.9749925
 Standard basis: Aug-CC-pVDZ (5D, 7F)
 There are   141 symmetry adapted basis functions of A   symmetry.
 Integral buffers will be    131072 words long.
 Raffenetti 1 integral format.
 Two-electron integral symmetry is turned on.
   141 basis functions,   217 primitive gaussians,   147 cartesian basis functions
    15 alpha electrons       15 beta electrons
       nuclear repulsion energy        90.7606286227 Hartrees.
 NAtoms=   11 NActive=   11 NUniq=   11 SFac= 7.50D-01 NAtFMM=   80 NAOKFM=F Big=F
 One-electron integrals computed using PRISM.
 NBasis=   141 RedAO= T  NBF=   141
 NBsUse=   141 1.00D-06 NBFU=   141
 Initial guess read from the read-write file:
 Initial guess orbital symmetries:
       Occupied  (A) (A) (A) (A) (A) (A) (A) (A) (A) (A) (A) (A)
                 (A) (A) (A)
       Virtual   (A) (A) (A) (A) (A) (A) (A) (A) (A) (A) (A) (A)
                 (A) (A) (A) (A) (A) (A) (A) (A) (A) (A) (A) (A)
                 (A) (A) (A) (A) (A) (A) (A) (A) (A) (A) (A) (A)
                 (A) (A) (A) (A) (A) (A) (A) (A) (A) (A) (A) (A)
                 (A) (A) (A) (A) (A) (A) (A) (A) (A) (A) (A) (A)
                 (A) (A) (A) (A) (A) (A) (A) (A) (A) (A) (A) (A)
                 (A) (A) (A) (A) (A) (A) (A) (A) (A) (A) (A) (A)
                 (A) (A) (A) (A) (A) (A) (A) (A) (A) (A) (A) (A)
                 (A) (A) (A) (A) (A) (A) (A) (A) (A) (A) (A) (A)
                 (A) (A) (A) (A) (A) (A) (A) (A) (A) (A) (A) (A)
                 (A) (A) (A) (A) (A) (A)
 Requested convergence on RMS density matrix=1.00D-08 within 128 cycles.
 Requested convergence on MAX density matrix=1.00D-06.
 Requested convergence on             energy=1.00D-06.
 No special actions if energy rises.
 Keep R1 integrals in memory in canonical form, NReq=    61706230.
 SCF Done:  E(RHF) =  -228.622608957     A.U. after    8 cycles
             Convg  =    0.2908D-08             -V/T =  2.0019
             S**2   =   0.0000
 ExpMin= 2.97D-02 ExpMax= 1.17D+04 ExpMxC= 4.01D+02 IAcc=3 IRadAn=         5 AccDes= 0.00D+00
 HarFok:  IExCor= 205 AccDes= 0.00D+00 IRadAn=         5 IDoV=1
 ScaDFX=  1.000000  1.000000  1.000000  1.000000
 Range of M.O.s used for correlation:     4   141
 NBasis=   141 NAE=    15 NBE=    15 NFC=     3 NFV=     0
 NROrb=    138 NOA=    12 NOB=    12 NVA=   126 NVB=   126

 **** Warning!!: The largest alpha MO coefficient is  0.11518722D+02

 Fully direct method using O(ONN) memory.
 JobTyp=1 Pass  1:  I=   4 to  15 NPSUse=  4 ParTrn=T ParDer=T DoDerP=T.
 Spin components of T(2) and E(2):
     alpha-alpha T2 =       0.2130407465D-01 E2=     -0.8184888883D-01
     alpha-beta  T2 =       0.1239889345D+00 E2=     -0.4896116399D+00
     beta-beta   T2 =       0.2130407465D-01 E2=     -0.8184888883D-01
 ANorm=    0.1080091239D+01
 E2 =    -0.6533094176D+00 EUMP2 =    -0.22927591837414D+03
 DoAtom=TTTTTTTTTTT
          Differentiating once with respect to electric field.
                with respect to dipole field.
          Differentiating once with respect to nuclear coordinates.
          Store integrals in memory, NReq=    59992078.
          There are   1 degrees of freedom in the 1st order CPHF.
     1 vectors were produced by pass  0.
 AX will form   1 AO Fock derivatives at one time.
     1 vectors were produced by pass  1.
     1 vectors were produced by pass  2.
     1 vectors were produced by pass  3.
     1 vectors were produced by pass  4.
     1 vectors were produced by pass  5.
     1 vectors were produced by pass  6.
     1 vectors were produced by pass  7.
     1 vectors were produced by pass  8.
     1 vectors were produced by pass  9.
     1 vectors were produced by pass 10.
 Inv2:  IOpt= 1 Iter= 1 AM= 3.79D-16 Conv= 1.00D-12.
 Inverted reduced A of dimension   11 with in-core refinement.
 End of Minotr Frequency-dependent properties file   721 does not exist.
 ***** Axes restored to original set *****
 -------------------------------------------------------------------
 Center     Atomic                   Forces (Hartrees/Bohr)
 Number     Number              X              Y              Z
 -------------------------------------------------------------------
    1          8          -0.000021635    0.000242207   -0.000011031
    2          8          -0.000213212   -0.000112948    0.000056996
    3          8           0.000206842   -0.000118312   -0.000067560
    4          1          -0.000757881    0.000313683    0.000178677
    5          1          -0.000020090   -0.000187237   -0.000040664
    6          1           0.000032783   -0.000188128    0.000042560
    7          1           0.000773717    0.000310453   -0.000157507
    8          1          -0.000022679   -0.000106405   -0.000076054
    9          1           0.000032873   -0.000024021    0.000115745
   10          1          -0.000032167   -0.000024214   -0.000115771
   11          1           0.000021449   -0.000105078    0.000074607
 -------------------------------------------------------------------
 Cartesian Forces:  Max     0.000773717 RMS     0.000230070

 GradGradGradGradGradGradGradGradGradGradGradGradGradGradGradGradGradGrad
 Berny optimization.
 Internal  Forces:  Max     0.000753457 RMS     0.000232360
 Search for a local minimum.
 Step number   4 out of a maximum of  44
 All quantities printed in internal units (Hartrees-Bohrs-Radians)
 Update second derivatives using D2CorX and points  1  2  3  4
 Trust test= 1.62D+00 RLast= 1.99D-02 DXMaxT set to 3.80D-01
     Eigenvalues ---    0.00228   0.00230   0.00920   0.00927   0.01691
     Eigenvalues ---    0.05508   0.05617   0.06062   0.06579   0.08581
     Eigenvalues ---    0.13340   0.14387   0.15011   0.15952   0.16000
     Eigenvalues ---    0.16000   0.16014   0.21594   0.25000   0.46355
     Eigenvalues ---    0.47956   0.51045   0.51068   0.51092   0.51791
     Eigenvalues ---    0.51851   0.628011000.000001000.000001000.00000
     Eigenvalues --- 1000.000001000.000001000.000001000.00000
 RFO step:  Lambda=-1.97424419D-05.
 Quartic linear search produced a step of  1.87972.
 Iteration  1 RMS(Cart)=  0.01571506 RMS(Int)=  0.00027392
 Iteration  2 RMS(Cart)=  0.00004092 RMS(Int)=  0.00001278
 Iteration  3 RMS(Cart)=  0.00000001 RMS(Int)=  0.00001278
 Variable       Old X    -DE/DX   Delta X   Delta X   Delta X     New X
                                 (Linear)    (Quad)   (Total)
    R1        3.44046   0.00046   0.02153   0.01028   0.03181   3.47227
    R2        1.84826  -0.00008  -0.00021  -0.00024  -0.00045   1.84782
    R3        1.84826  -0.00008  -0.00021  -0.00024  -0.00044   1.84782
    R4        3.43392   0.00047   0.02170   0.01038   0.03208   3.46599
    R5        1.89842  -0.00002   0.00150  -0.00148   0.00002   1.89844
    R6        1.85620   0.00009   0.00212  -0.00060   0.00152   1.85772
    R7        1.85667   0.00008   0.00206  -0.00060   0.00146   1.85813
    R8        1.89794  -0.00001   0.00154  -0.00146   0.00007   1.89802
    R9        1.85671   0.00008   0.00206  -0.00060   0.00146   1.85817
   R10        1.85624   0.00008   0.00212  -0.00060   0.00151   1.85776
    A1        1.87802  -0.00013  -0.00190  -0.00120  -0.00310   1.87491
    A2        1.87291  -0.00009  -0.00170  -0.00075  -0.00245   1.87046
    A3        2.13703   0.00029   0.00594   0.00300   0.00895   2.14598
    A4        1.79451   0.00016   0.00126   0.00085   0.00210   1.79661
    A5        1.87352  -0.00010  -0.00187  -0.00082  -0.00269   1.87083
    A6        1.87875  -0.00014  -0.00233  -0.00133  -0.00366   1.87508
    A7        1.97685   0.00005  -0.00491   0.00131  -0.00361   1.97324
    A8        1.97505   0.00008  -0.00444   0.00139  -0.00306   1.97199
    A9        1.92227   0.00008  -0.00229   0.00149  -0.00084   1.92143
   A10        1.97497   0.00008  -0.00445   0.00138  -0.00309   1.97188
   A11        1.97669   0.00006  -0.00488   0.00131  -0.00359   1.97310
   A12        1.92241   0.00008  -0.00233   0.00148  -0.00088   1.92153
   A13        3.01780  -0.00075  -0.00671  -0.00465  -0.01136   3.00644
   A14        3.01764  -0.00074  -0.00657  -0.00456  -0.01114   3.00650
    D1        1.60384  -0.00003   0.00363   0.00304   0.00667   1.61051
    D2       -2.75879   0.00005   0.00344   0.00314   0.00658  -2.75222
    D3       -0.57624   0.00000   0.00329   0.00294   0.00623  -0.57001
    D4       -0.58638   0.00000   0.00364   0.00303   0.00667  -0.57971
    D5       -2.76849   0.00004   0.00333   0.00310   0.00644  -2.76205
    D6        1.59355  -0.00003   0.00379   0.00310   0.00689   1.60044
    D7        2.16933  -0.00012   0.00430  -0.00377   0.00051   2.16984
    D8       -1.91009   0.00010  -0.00684   0.00057  -0.00624  -1.91633
    D9       -1.91830   0.00010  -0.00653   0.00090  -0.00561  -1.92391
   D10        2.16113  -0.00011   0.00464  -0.00342   0.00120   2.16233
         Item               Value     Threshold  Converged?
 Maximum Force            0.000753     0.000015     NO 
 RMS     Force            0.000232     0.000010     NO 
 Maximum Displacement     0.035409     0.000060     NO 
 RMS     Displacement     0.015709     0.000040     NO 
 Predicted change in Energy=-2.416544D-05
 GradGradGradGradGradGradGradGradGradGradGradGradGradGradGradGradGradGrad

                          Input orientation:                          
 ---------------------------------------------------------------------
 Center     Atomic     Atomic              Coordinates (Angstroms)
 Number     Number      Type              X           Y           Z
 ---------------------------------------------------------------------
    1          8             0        0.001297    0.893177   -0.000228
    2          8             0        2.433412   -0.558824    0.036413
    3          8             0       -2.434848   -0.558120   -0.036097
    4          1             0       -1.613459    0.016728    0.024421
    5          1             0       -0.007908    1.502496   -0.764938
    6          1             0        0.010924    1.502102    0.764790
    7          1             0        1.612117    0.016448   -0.025042
    8          1             0        2.801181   -0.800083   -0.842766
    9          1             0        3.136436   -0.165472    0.600214
   10          1             0       -3.137438   -0.165480   -0.600972
   11          1             0       -2.802977   -0.797252    0.843532
 ---------------------------------------------------------------------
                    Distance matrix (angstroms):
                    1          2          3          4          5
     1  O    0.000000
     2  O    2.832813   0.000000
     3  O    2.835904   4.868800   0.000000
     4  H    1.837446   4.087612   1.004386   0.000000
     5  H    0.977822   3.294123   3.266096   2.325594   0.000000
     6  H    0.977822   3.262882   3.296625   2.322305   1.529843
     7  H    1.834124   1.004609   4.087564   3.225956   2.319540
     8  H    3.378808   0.983064   5.303325   4.572553   3.633029
     9  H    3.363089   0.983280   5.621234   4.788135   3.812172
    10  H    3.366497   5.620974   0.983301   1.657355   3.550068
    11  H    3.381335   5.303589   0.983082   1.657847   3.960861
                    6          7          8          9         10
     6  H    0.000000
     7  H    2.322676   0.000000
     8  H    3.958513   1.658091   0.000000
     9  H    3.546367   1.657585   1.611620   0.000000
    10  H    3.815536   4.787804   5.977321   6.387827   0.000000
    11  H    3.634730   4.572700   5.852366   5.977873   1.611705
                   11
    11  H    0.000000
 Stoichiometry    H8O3(2+)
 Framework group  C1[X(H8O3)]
 Deg. of freedom    27
 Full point group                 C1
 Largest Abelian subgroup         C1      NOp   1
 Largest concise Abelian subgroup C1      NOp   1
                         Standard orientation:                         
 ---------------------------------------------------------------------
 Center     Atomic     Atomic              Coordinates (Angstroms)
 Number     Number      Type              X           Y           Z
 ---------------------------------------------------------------------
    1          8             0        0.001364    0.914447   -0.000107
    2          8             0        2.433580   -0.537551    0.029164
    3          8             0       -2.434873   -0.536852   -0.028985
    4          1             0       -1.613310    0.037990    0.029188
    5          1             0       -0.010099    1.523869   -0.764704
    6          1             0        0.013245    1.523269    0.764961
    7          1             0        1.612106    0.037727   -0.029791
    8          1             0        2.798754   -0.778690   -0.851129
    9          1             0        3.138263   -0.144273    0.590942
   10          1             0       -3.139126   -0.144139   -0.591733
   11          1             0       -2.800404   -0.776104    0.851694
 ---------------------------------------------------------------------
 Rotational constants (GHZ):     15.8483830      2.1613476      1.9514389
 Standard basis: Aug-CC-pVDZ (5D, 7F)
 There are   141 symmetry adapted basis functions of A   symmetry.
 Integral buffers will be    131072 words long.
 Raffenetti 1 integral format.
 Two-electron integral symmetry is turned on.
   141 basis functions,   217 primitive gaussians,   147 cartesian basis functions
    15 alpha electrons       15 beta electrons
       nuclear repulsion energy        90.4272095266 Hartrees.
 NAtoms=   11 NActive=   11 NUniq=   11 SFac= 7.50D-01 NAtFMM=   80 NAOKFM=F Big=F
 One-electron integrals computed using PRISM.
 NBasis=   141 RedAO= T  NBF=   141
 NBsUse=   141 1.00D-06 NBFU=   141
 Initial guess read from the read-write file:
 Initial guess orbital symmetries:
       Occupied  (A) (A) (A) (A) (A) (A) (A) (A) (A) (A) (A) (A)
                 (A) (A) (A)
       Virtual   (A) (A) (A) (A) (A) (A) (A) (A) (A) (A) (A) (A)
                 (A) (A) (A) (A) (A) (A) (A) (A) (A) (A) (A) (A)
                 (A) (A) (A) (A) (A) (A) (A) (A) (A) (A) (A) (A)
                 (A) (A) (A) (A) (A) (A) (A) (A) (A) (A) (A) (A)
                 (A) (A) (A) (A) (A) (A) (A) (A) (A) (A) (A) (A)
                 (A) (A) (A) (A) (A) (A) (A) (A) (A) (A) (A) (A)
                 (A) (A) (A) (A) (A) (A) (A) (A) (A) (A) (A) (A)
                 (A) (A) (A) (A) (A) (A) (A) (A) (A) (A) (A) (A)
                 (A) (A) (A) (A) (A) (A) (A) (A) (A) (A) (A) (A)
                 (A) (A) (A) (A) (A) (A) (A) (A) (A) (A) (A) (A)
                 (A) (A) (A) (A) (A) (A)
 Harris functional with IExCor=  205 diagonalized for initial guess.
 ExpMin= 2.97D-02 ExpMax= 1.17D+04 ExpMxC= 4.01D+02 IAcc=3 IRadAn=         5 AccDes= 0.00D+00
 HarFok:  IExCor= 205 AccDes= 0.00D+00 IRadAn=         5 IDoV=1
 ScaDFX=  1.000000  1.000000  1.000000  1.000000
 Requested convergence on RMS density matrix=1.00D-08 within 128 cycles.
 Requested convergence on MAX density matrix=1.00D-06.
 Requested convergence on             energy=1.00D-06.
 No special actions if energy rises.
 Keep R1 integrals in memory in canonical form, NReq=    61706230.
 SCF Done:  E(RHF) =  -228.622635592     A.U. after    8 cycles
             Convg  =    0.5834D-08             -V/T =  2.0019
             S**2   =   0.0000
 ExpMin= 2.97D-02 ExpMax= 1.17D+04 ExpMxC= 4.01D+02 IAcc=3 IRadAn=         5 AccDes= 0.00D+00
 HarFok:  IExCor= 205 AccDes= 0.00D+00 IRadAn=         5 IDoV=1
 ScaDFX=  1.000000  1.000000  1.000000  1.000000
 Range of M.O.s used for correlation:     4   141
 NBasis=   141 NAE=    15 NBE=    15 NFC=     3 NFV=     0
 NROrb=    138 NOA=    12 NOB=    12 NVA=   126 NVB=   126

 **** Warning!!: The largest alpha MO coefficient is  0.11445368D+02

 Fully direct method using O(ONN) memory.
 JobTyp=1 Pass  1:  I=   4 to  15 NPSUse=  4 ParTrn=T ParDer=T DoDerP=T.
 Spin components of T(2) and E(2):
     alpha-alpha T2 =       0.2131106315D-01 E2=     -0.8182078824D-01
     alpha-beta  T2 =       0.1241049652D+00 E2=     -0.4896726549D+00
     beta-beta   T2 =       0.2131106315D-01 E2=     -0.8182078824D-01
 ANorm=    0.1080151421D+01
 E2 =    -0.6533142313D+00 EUMP2 =    -0.22927594982351D+03
 DoAtom=TTTTTTTTTTT
          Differentiating once with respect to electric field.
                with respect to dipole field.
          Differentiating once with respect to nuclear coordinates.
          Store integrals in memory, NReq=    59992078.
          There are   1 degrees of freedom in the 1st order CPHF.
     1 vectors were produced by pass  0.
 AX will form   1 AO Fock derivatives at one time.
     1 vectors were produced by pass  1.
     1 vectors were produced by pass  2.
     1 vectors were produced by pass  3.
     1 vectors were produced by pass  4.
     1 vectors were produced by pass  5.
     1 vectors were produced by pass  6.
     1 vectors were produced by pass  7.
     1 vectors were produced by pass  8.
     1 vectors were produced by pass  9.
     1 vectors were produced by pass 10.
 Inv2:  IOpt= 1 Iter= 1 AM= 2.85D-16 Conv= 1.00D-12.
 Inverted reduced A of dimension   11 with in-core refinement.
 End of Minotr Frequency-dependent properties file   721 does not exist.
 ***** Axes restored to original set *****
 -------------------------------------------------------------------
 Center     Atomic                   Forces (Hartrees/Bohr)
 Number     Number              X              Y              Z
 -------------------------------------------------------------------
    1          8          -0.000000789   -0.000253213   -0.000003922
    2          8          -0.000164561    0.000585856   -0.000317918
    3          8           0.000163602    0.000588852    0.000303731
    4          1          -0.000894071   -0.000142540   -0.000014855
    5          1          -0.000023031   -0.000016789    0.000087001
    6          1           0.000020037   -0.000016455   -0.000088301
    7          1           0.000898226   -0.000139873    0.000033307
    8          1          -0.000179533   -0.000003880    0.000490978
    9          1          -0.000337781   -0.000299141   -0.000229275
   10          1           0.000338249   -0.000298767    0.000228335
   11          1           0.000179653   -0.000004050   -0.000489082
 -------------------------------------------------------------------
 Cartesian Forces:  Max     0.000898226 RMS     0.000335851

 GradGradGradGradGradGradGradGradGradGradGradGradGradGradGradGradGradGrad
 Berny optimization.
 Internal  Forces:  Max     0.000723633 RMS     0.000289285
 Search for a local minimum.
 Step number   5 out of a maximum of  44
 All quantities printed in internal units (Hartrees-Bohrs-Radians)
 Update second derivatives using D2CorX and points  1  2  3  4  5

 Trust test= 1.30D+00 RLast= 5.29D-02 DXMaxT set to 3.80D-01
     Eigenvalues ---    0.00225   0.00230   0.00897   0.00927   0.01284
     Eigenvalues ---    0.04547   0.05446   0.06062   0.06663   0.08642
     Eigenvalues ---    0.13386   0.14102   0.15030   0.15842   0.16000
     Eigenvalues ---    0.16000   0.16015   0.20628   0.25000   0.46355
     Eigenvalues ---    0.48085   0.51045   0.51068   0.51092   0.51791
     Eigenvalues ---    0.51955   0.752831000.000001000.000001000.00000
     Eigenvalues --- 1000.000001000.000001000.000001000.00000
 RFO step:  Lambda=-1.09240951D-05.
 Quartic linear search produced a step of  0.43441.
 Iteration  1 RMS(Cart)=  0.00895700 RMS(Int)=  0.00012295
 Iteration  2 RMS(Cart)=  0.00002286 RMS(Int)=  0.00000308
 Iteration  3 RMS(Cart)=  0.00000000 RMS(Int)=  0.00000308
 Variable       Old X    -DE/DX   Delta X   Delta X   Delta X     New X
                                 (Linear)    (Quad)   (Total)
    R1        3.47227   0.00012   0.01382   0.00430   0.01812   3.49039
    R2        1.84782  -0.00008  -0.00020  -0.00014  -0.00034   1.84748
    R3        1.84782  -0.00008  -0.00019  -0.00014  -0.00034   1.84748
    R4        3.46599   0.00012   0.01393   0.00436   0.01830   3.48429
    R5        1.89844  -0.00072   0.00001  -0.00131  -0.00131   1.89713
    R6        1.85772  -0.00051   0.00066  -0.00074  -0.00008   1.85764
    R7        1.85813  -0.00049   0.00064  -0.00073  -0.00009   1.85804
    R8        1.89802  -0.00072   0.00003  -0.00131  -0.00128   1.89674
    R9        1.85817  -0.00049   0.00064  -0.00073  -0.00009   1.85808
   R10        1.85776  -0.00050   0.00066  -0.00074  -0.00008   1.85767
    A1        1.87491  -0.00007  -0.00135  -0.00066  -0.00201   1.87291
    A2        1.87046  -0.00003  -0.00106  -0.00030  -0.00137   1.86909
    A3        2.14598   0.00019   0.00389   0.00189   0.00578   2.15176
    A4        1.79661  -0.00003   0.00091  -0.00030   0.00060   1.79721
    A5        1.87083  -0.00003  -0.00117  -0.00031  -0.00148   1.86935
[...]
           Z            0.00496   0.00000   0.99999
 This molecule is an asymmetric top.
 Rotational symmetry number  1.
 Rotational temperatures (Kelvin)      0.75990     0.10311     0.09313
 Rotational constants (GHZ):          15.83379     2.14857     1.94042
    1 imaginary frequencies ignored.
 Zero-point vibrational energy     254240.4 (Joules/Mol)
                                   60.76492 (Kcal/Mol)
 Warning -- explicit consideration of   9 degrees of freedom as
           vibrations may cause significant error
 Vibrational temperatures:     53.94    73.09   111.10   243.00   432.02
          (Kelvin)            523.08   609.34   736.84   739.97   975.14
                             1064.80  1355.21  1368.40  2363.99  2407.31
                             2411.88  2446.86  2448.77  4548.07  4644.41
                             5173.57  5180.68  5267.63  5291.06  5292.05
                             5393.92
 
 Zero-point correction=                           0.096835 (Hartree/Particle)
 Thermal correction to Energy=                    0.104557
 Thermal correction to Enthalpy=                  0.105501
 Thermal correction to Gibbs Free Energy=         0.064604
 Sum of electronic and zero-point Energies=           -229.179135
 Sum of electronic and thermal Energies=              -229.171414
 Sum of electronic and thermal Enthalpies=            -229.170470
 Sum of electronic and thermal Free Energies=         -229.211366
 
                     E (Thermal)             CV                S
                      KCal/Mol        Cal/Mol-Kelvin    Cal/Mol-Kelvin
 Total                   65.610             23.551             86.074
 Electronic               0.000              0.000              0.000
 Translational            0.889              2.981             37.992
 Rotational               0.889              2.981             25.990
 Vibrational             63.833             17.590             22.091
 Vibration  1             0.594              1.982              5.388
 Vibration  2             0.595              1.977              4.786
 Vibration  3             0.599              1.964              3.960
 Vibration  4             0.625              1.881              2.448
 Vibration  5             0.693              1.673              1.415
 Vibration  6             0.737              1.547              1.107
 Vibration  7             0.786              1.419              0.880
 Vibration  8             0.867              1.223              0.628
 Vibration  9             0.869              1.218              0.623
                       Q            Log10(Q)             Ln(Q)
 Total Bot       0.192346D-29        -29.715917        -68.423427
 Total V=0       0.668392D+15         14.825031         34.135896
 Vib (Bot)       0.109180D-41        -41.961858        -96.620749
 Vib (Bot)  1    0.551996D+01          0.741936          1.708371
 Vib (Bot)  2    0.406924D+01          0.609513          1.403456
 Vib (Bot)  3    0.266806D+01          0.426196          0.981353
 Vib (Bot)  4    0.119366D+01          0.076882          0.177028
 Vib (Bot)  5    0.633267D+00         -0.198413         -0.456864
 Vib (Bot)  6    0.502961D+00         -0.298465         -0.687242
 Vib (Bot)  7    0.413489D+00         -0.383536         -0.883125
 Vib (Bot)  8    0.317448D+00         -0.498328         -1.147442
 Vib (Bot)  9    0.315485D+00         -0.501021         -1.153644
 Vib (V=0)       0.379393D+03          2.579090          5.938574
 Vib (V=0)  1    0.604256D+01          0.781221          1.798828
 Vib (V=0)  2    0.459984D+01          0.662743          1.526022
 Vib (V=0)  3    0.321451D+01          0.507115          1.167674
 Vib (V=0)  4    0.179415D+01          0.253860          0.584534
 Vib (V=0)  5    0.130686D+01          0.116230          0.267629
 Vib (V=0)  6    0.120920D+01          0.082500          0.189962
 Vib (V=0)  7    0.114882D+01          0.060254          0.138739
 Vib (V=0)  8    0.109226D+01          0.038326          0.088250
 Vib (V=0)  9    0.109121D+01          0.037909          0.087288
 Electronic      0.100000D+01          0.000000          0.000000
 Translational   0.164925D+08          7.217288         16.618419
 Rotational      0.106820D+06          5.028654         11.578903
 ***** Axes restored to original set *****
 -------------------------------------------------------------------
 Center     Atomic                   Forces (Hartrees/Bohr)
 Number     Number              X              Y              Z
 -------------------------------------------------------------------
    1          8          -0.000001449   -0.000000208   -0.000000444
    2          8          -0.000000048   -0.000000983   -0.000000153
    3          8          -0.000000176    0.000000080   -0.000000323
    4          1           0.000000091    0.000000101   -0.000000519
    5          1          -0.000000468   -0.000000354    0.000000158
    6          1           0.000001772   -0.000000258   -0.000000248
    7          1           0.000000017    0.000001916    0.000002007
    8          1          -0.000000007   -0.000000087   -0.000000806
    9          1           0.000000207    0.000000002    0.000000067
   10          1           0.000000049   -0.000000121   -0.000000230
   11          1           0.000000011   -0.000000086    0.000000490
 -------------------------------------------------------------------
 Cartesian Forces:  Max     0.000002007 RMS     0.000000699

 GradGradGradGradGradGradGradGradGradGradGradGradGradGradGradGradGradGrad
 Berny optimization.
 Internal  Forces:  Max     0.000001623 RMS     0.000000494
 Search for a local minimum.
 Step number   1 out of a maximum of   2
 All quantities printed in internal units (Hartrees-Bohrs-Radians)
 Second derivative matrix not updated -- analytic derivatives used.
     Eigenvalues ---   -0.00003   0.00005   0.00006   0.00065   0.00077
     Eigenvalues ---    0.00891   0.01838   0.02200   0.02300   0.02821
     Eigenvalues ---    0.03222   0.03304   0.04297   0.04530   0.07873
     Eigenvalues ---    0.12221   0.12238   0.12785   0.12815   0.41081
     Eigenvalues ---    0.41212   0.47468   0.47527   0.47613   0.47620
     Eigenvalues ---    0.49003   0.497741000.000001000.000001000.00000
     Eigenvalues --- 1000.000001000.000001000.000001000.00000
 Eigenvalue   1 out of range, new value =    0.000030 Eigenvector:
                           1
           R1           0.70205
           R2          -0.00019
           R3           0.00009
           R4          -0.69215
           R5           0.04495
           R6          -0.00453
           R7          -0.00431
           R8          -0.04501
           R9           0.00432
           R10          0.00454
           A1          -0.03021
           A2          -0.04411
           A3           0.00057
           A4           0.00003
           A5           0.04374
           A6           0.02988
           A7           0.01631
           A8           0.01447
           A9          -0.00969
           A10         -0.01466
           A11         -0.01650
           A12          0.00970
           A13         -0.05862
           A14          0.05781
           D1          -0.01448
           D2          -0.04682
           D3          -0.04807
           D4           0.04722
           D5           0.04586
           D6           0.01370
           D7          -0.02142
           D8          -0.00884
           D9           0.00903
           D10          0.02191
 Angle between quadratic step and forces=  84.17 degrees.
 Linear search not attempted -- first point.
 Iteration  1 RMS(Cart)=  0.00085927 RMS(Int)=  0.00000100
 Iteration  2 RMS(Cart)=  0.00000052 RMS(Int)=  0.00000000
 Variable       Old X    -DE/DX   Delta X   Delta X   Delta X     New X
                                 (Linear)    (Quad)   (Total)
    R1        3.49031   0.00000   0.00000   0.00278   0.00278   3.49309
    R2        1.84760   0.00000   0.00000   0.00000   0.00000   1.84760
    R3        1.84760   0.00000   0.00000   0.00000   0.00000   1.84760
    R4        3.48432   0.00000   0.00000  -0.00277  -0.00277   3.48156
    R5        1.89540   0.00000   0.00000   0.00018   0.00018   1.89559
    R6        1.85654   0.00000   0.00000  -0.00002  -0.00002   1.85652
    R7        1.85703   0.00000   0.00000  -0.00002  -0.00002   1.85701
    R8        1.89502   0.00000   0.00000  -0.00018  -0.00018   1.89484
    R9        1.85706   0.00000   0.00000   0.00002   0.00002   1.85708
   R10        1.85658   0.00000   0.00000   0.00002   0.00002   1.85659
    A1        1.86921   0.00000   0.00000  -0.00012  -0.00012   1.86909
    A2        1.86705   0.00000   0.00000  -0.00011  -0.00011   1.86694
    A3        2.16241   0.00000   0.00000  -0.00004  -0.00004   2.16237
    A4        1.79555   0.00000   0.00000  -0.00001  -0.00001   1.79555
    A5        1.86746   0.00000   0.00000   0.00020   0.00020   1.86766
    A6        1.86950   0.00000   0.00000   0.00008   0.00008   1.86959
    A7        1.97493   0.00000   0.00000   0.00006   0.00006   1.97499
    A8        1.97386   0.00000   0.00000   0.00006   0.00006   1.97392
    A9        1.92315   0.00000   0.00000  -0.00004  -0.00004   1.92311
   A10        1.97373   0.00000   0.00000  -0.00006  -0.00006   1.97368
   A11        1.97478   0.00000   0.00000  -0.00007  -0.00007   1.97472
   A12        1.92323   0.00000   0.00000   0.00004   0.00004   1.92327
   A13        2.98623   0.00000   0.00000  -0.00024  -0.00024   2.98599
   A14        2.98673   0.00000   0.00000   0.00022   0.00022   2.98695
    D1        1.64927   0.00000   0.00000   0.00098   0.00098   1.65025
    D2       -2.71866   0.00000   0.00000   0.00087   0.00087  -2.71780
    D3       -0.53431   0.00000   0.00000   0.00084   0.00084  -0.53348
    D4       -0.53479   0.00000   0.00000   0.00211   0.00211  -0.53269
    D5       -2.71914   0.00000   0.00000   0.00211   0.00211  -2.71703
    D6        1.64849   0.00000   0.00000   0.00199   0.00199   1.65048
    D7        2.11196   0.00000   0.00000  -0.00109  -0.00109   2.11087
    D8       -1.96887   0.00000   0.00000  -0.00105  -0.00105  -1.96991
    D9       -1.96954   0.00000   0.00000  -0.00023  -0.00023  -1.96976
   D10        2.11141   0.00000   0.00000  -0.00017  -0.00017   2.11123
         Item               Value     Threshold  Converged?
 Maximum Force            0.000002     0.000015     YES
 RMS     Force            0.000000     0.000010     YES
 Maximum Displacement     0.001985     0.000060     NO 
 RMS     Displacement     0.000860     0.000040     NO 
 Predicted change in Energy=-1.352255D-09
 GradGradGradGradGradGradGradGradGradGradGradGradGradGradGradGradGradGrad

 1\1\GINC-NODE84\Freq\RMP2-FC\Aug-CC-pVDZ\H8O3(2+)\CHINH\18-May-2010\0\
 \#N Geom=AllCheck Guess=Read SCRF=Check GenChk RMP2(FC)/Aug-CC-pVDZ Fr
 eq\\Str 5\\2,1\O,0.0012508211,0.8955309168,-0.0003228858\O,2.440648576
 5,-0.5563630842,0.0386615382\O,-2.4420555402,-0.5555023851,-0.03843208
 48\H,-1.6290094231,0.0278441187,0.0269498005\H,-0.0101437286,1.5047836
 038,-0.7649105206\H,0.0129294082,1.5051866992,0.7639397186\H,1.6277826
 556,0.0275579149,-0.0269454776\H,2.8026005432,-0.8145083758,-0.8374281
 666\H,3.1497424803,-0.1685318292,0.5976461099\H,-3.1508278154,-0.16739
 20603,-0.5976661886\H,-2.8041809776,-0.8128835189,0.8378341568\\Versio
 n=AM64L-G03RevD.01\State=1-A\HF=-228.6229519\MP2=-229.2759704\RMSD=7.0
 79e-10\RMSF=6.990e-07\ZeroPoint=0.0968351\Thermal=0.1045567\Dipole=-0.
 0033276,0.4292396,-0.0000002\DipoleDeriv=-1.0237066,0.0009317,0.006952
 3,0.0009049,-0.5175447,0.000001,0.0161382,-0.0000142,-0.4972023,-0.648
 3698,0.1601261,-0.0102755,0.1936542,-0.3736043,-0.0483458,-0.0167963,-
 0.0435494,-0.3561954,-0.647173,-0.1590542,-0.0101781,-0.1924206,-0.372
 5539,0.0484526,-0.0166126,0.0437002,-0.3562757,0.9770849,0.3129824,-0.
 0289507,0.3775923,0.4905977,0.0161861,-0.0182631,0.0223884,0.2713581,0
 .3227059,-0.0009083,0.0001862,0.0003087,0.3066068,-0.0307025,0.0000577
 ,-0.0519954,0.3689539,0.3227041,0.0009255,0.0000578,-0.0002591,0.30665
 03,0.0307314,-0.0000811,0.0520256,0.3689066,0.9788244,-0.3150145,-0.02
 87813,-0.3797593,0.4919308,-0.016279,-0.0180191,-0.0225146,0.2710804,0
 .3758347,-0.0266924,-0.0788834,-0.0341513,0.4536487,0.0711334,-0.10476
 83,0.0906467,0.4955378,0.4830076,0.037,0.1143902,0.0554283,0.3802525,-
 0.0006563,0.1315738,-0.0164795,0.4689448,0.4830748,-0.0370359,0.114456
 4,-0.0554592,0.3804325,0.0005585,0.1316296,0.0163641,0.469081,0.376012
 8,0.0267396,-0.0789739,0.0341611,0.4535836,-0.0710794,-0.1048588,-0.09
 05718,0.4958108\Polar=28.001008,-0.0069195,21.4012902,0.1576103,-0.000
 1056,21.1913076\PG=C01 [X(H8O3)]\NImag=1\\0.04625434,0.00001891,0.4486
 5074,0.00946587,0.00004507,0.63471300,-0.01521024,0.01028285,0.0006598
 9,0.66636532,0.01060946,-0.00310766,0.00053274,-0.11880633,0.29919274,
 0.00100954,0.00021648,0.00482997,0.07033020,0.22691731,0.62000167,-0.0
 1509431,-0.01016643,0.00066180,-0.00146624,0.00093497,0.00007000,0.666
 79840,-0.01050381,-0.00305114,-0.00052452,-0.00093289,0.00071006,0.000
 04275,0.11887034,0.29902377,0.00101083,-0.00021153,0.00479116,0.000070
 98,-0.00004352,0.00008797,0.07016488,-0.22673119,0.62022407,0.01198414
 ,0.01003726,-0.00045297,0.00300864,-0.00182816,-0.00008859,-0.24918636
 ,-0.15066292,-0.02698199,0.25215395,0.01761524,-0.00091395,-0.00048846
 ,0.00215687,-0.00171928,-0.00016524,-0.18547992,-0.15492804,0.01116000
 ,0.15589717,0.14935110,-0.00011424,-0.00002659,-0.01240290,-0.00001452
 ,-0.00004875,-0.00014455,-0.04289705,0.00260223,-0.06878141,0.02703446
 ,-0.00288838,0.06643391,-0.02069183,0.00244118,-0.00408941,-0.00156420
 ,0.00032032,0.00120852,-0.00195344,-0.00020226,-0.00151661,0.00286969,
 -0.00194832,0.00447918,0.01863132,0.00363635,-0.21843003,0.23635057,-0
 .00057503,0.00050675,-0.00044082,0.00040077,0.00064922,-0.00064757,-0.
 00091362,-0.00223192,0.00224966,-0.00328632,0.20905718,-0.00446988,0.1
 8152951,-0.30817347,0.00237604,-0.00152887,-0.00039608,-0.00237717,-0.
 00135890,-0.00053032,0.00410005,0.00280945,0.00103183,0.00480109,-0.21
 221412,0.33472642,-0.02069367,-0.00252057,-0.00423919,-0.00196958,0.00
 020908,-0.00152423,-0.00154914,-0.00031135,0.00120208,0.00264603,-0.00
 228052,-0.00460781,0.00133066,-0.00047890,-0.00045719,0.01863448,-0.00
 368462,-0.21864932,-0.23639745,-0.00039748,0.00065326,0.00065125,0.000
 57949,0.00050562,0.00043758,-0.00090323,-0.00242681,-0.00237646,0.0004
 7928,0.01284435,0.02826387,0.00334068,0.20927919,-0.00456125,-0.181574
 56,-0.30794851,-0.00239027,0.00136908,-0.00053336,0.00236213,0.0015167
 3,-0.00039665,-0.00416268,-0.00272435,0.00098472,-0.00047273,-0.028286
 10,-0.02893310,0.00489913,0.21227945,0.33449807,0.01196723,-0.01010024
 ,-0.00044568,-0.24844916,0.15034208,-0.02702054,0.00300597,0.00182207,
 -0.00009040,-0.00643535,-0.00399429,0.00006100,0.00266742,0.00089135,-
 0.00418211,0.00289086,0.00090664,0.00411750,0.25136239,-0.01770409,-0.
 00089063,0.00048286,0.18509833,-0.15490904,-0.01112536,-0.00215861,-0.
 00171698,0.00016687,0.00400345,0.00417013,0.00002733,0.00227778,-0.002
 43823,0.00274308,0.00195233,-0.00224915,-0.00282498,-0.15545593,0.1493
 1244,-0.00010130,0.00001852,-0.01248876,-0.04292742,-0.00256610,-0.068
 78904,-0.00001278,0.00004992,-0.00014451,0.00005796,-0.00003013,0.0003
 0288,-0.00463273,0.00239438,0.00098449,0.00450291,-0.00226387,0.001038
 44,0.02705142,0.00286274,0.06653114,-0.00063005,0.00031672,-0.00118867
 ,-0.12541465,0.05795265,0.13065773,0.00021224,0.00003179,-0.00004180,-
 0.00041326,0.00004743,0.00012251,-0.00051256,0.00049433,0.00019007,0.0
 0012274,-0.00001464,0.00013473,-0.00266957,-0.00084554,0.02780633,0.11
 209589,-0.00062834,-0.00015023,0.00055376,0.03950814,-0.03972411,-0.08
 138719,-0.00030582,-0.00025108,-0.00001038,0.00065833,0.00050319,0.000
 05367,0.00072295,-0.00016754,-0.00007022,0.00004613,-0.00008288,-0.000
 11694,0.00419397,-0.00544286,-0.01891051,-0.04958935,0.04935176,-0.003
 39931,0.00110644,-0.00087259,0.11940457,-0.11871635,-0.38378545,-0.000
 49974,-0.00025172,-0.00012514,0.00096939,0.00057327,0.00016053,-0.0002
 4608,0.00003438,0.00081320,0.00045292,-0.00035586,-0.00020334,0.002623
 22,0.00342056,0.01043923,-0.13049219,0.11340849,0.38781397,0.00136847,
 0.00014734,0.00040616,-0.27596091,-0.09951009,-0.17460373,0.00044704,0
 .00019019,0.00000268,-0.00085614,-0.00036336,0.00000234,-0.00020819,0.
 00034146,-0.00019351,-0.00069290,0.00052673,0.00007740,-0.01306771,-0.
 01748716,-0.01186879,0.01745543,0.00530968,0.01093175,0.27184273,0.001
 08271,-0.00165978,-0.00076850,-0.11661063,-0.10130041,-0.13470142,0.00
 003048,-0.00004997,0.00001830,-0.00004039,0.00008708,-0.00001352,0.000
 21288,0.00021796,-0.00005173,0.00097506,0.00007308,0.00023970,0.012013
 46,0.01357225,0.01848547,-0.00842482,-0.00423392,0.00073612,0.11086080
 ,0.09318933,0.00227664,-0.00094269,-0.00078959,-0.14737026,-0.10597404
 ,-0.17105005,0.00036109,0.00019379,-0.00009591,-0.00077308,-0.00033031
 ,0.00014848,-0.00033859,0.00014265,-0.00009884,0.00035435,-0.00006253,
 0.00078006,-0.00231161,0.00449071,0.00181728,-0.02726630,-0.01354321,-
 0.01446335,0.17523274,0.11607421,0.18353676,0.00136677,-0.00014598,0.0
 0040439,0.00044808,-0.00019145,0.00000283,-0.27574045,0.09950630,-0.17
 451246,-0.01307667,0.01750528,-0.01189922,-0.00069134,-0.00052455,0.00
 007773,-0.00020830,-0.00034045,-0.00019332,-0.00085758,0.00036542,0.00
 000204,-0.00014582,0.00005994,0.00013099,-0.00018192,-0.00004413,-0.00
 011804,0.27162408,-0.00107323,-0.00164712,0.00076335,-0.00003034,-0.00
 005019,-0.00001829,0.11666758,-0.10135202,0.13480869,-0.01203761,0.013
 54568,-0.01849272,-0.00097047,0.00007498,-0.00023894,-0.00021182,0.000
 21847,0.00005162,0.00004016,0.00008738,0.00001349,0.00005557,0.0000605
 2,-0.00000267,0.00004421,0.00004388,0.00002127,-0.11087309,0.09324887,
 0.00226800,0.00093465,-0.00078956,0.00036179,-0.00019469,-0.00009571,-
 0.14734047,0.10603465,-0.17116880,-0.00229175,-0.00447895,0.00183056,0
 .00035412,0.00006170,0.00077858,-0.00033858,-0.00014327,-0.00009807,-0
 .00077394,0.00033185,0.00014810,-0.00004687,0.00006992,0.00023849,-0.0
 0011805,-0.00002129,-0.00002340,0.17517843,-0.11615165,0.18364601,-0.0
 0062085,-0.00031103,-0.00118218,0.00021295,-0.00003252,-0.00004174,-0.
 12547372,-0.05780747,0.13069181,-0.00269466,0.00084442,0.02783337,0.00
 012246,0.00001417,0.00013488,-0.00051118,-0.00049240,0.00018937,-0.000
 41452,-0.00004599,0.00012237,-0.00010039,0.00002437,0.00012449,-0.0001
 4590,-0.00005544,-0.00004692,0.01746314,0.00838905,-0.02725269,0.11216
 269,0.00063142,-0.00015088,-0.00054944,0.00030651,-0.00025211,0.000010
 54,-0.03937286,-0.03953942,0.08105276,-0.00421028,-0.00543717,0.018913
 53,-0.00004702,-0.00008272,0.00011686,-0.00072012,-0.00016581,0.000070
 34,-0.00065926,0.00050470,-0.00005391,-0.00002415,0.00013713,0.0000473
 2,-0.00005978,0.00006050,-0.00006985,-0.00531728,-0.00423044,0.0135570
 7,0.04947283,0.04915622,-0.00338490,-0.00109530,-0.00086874,-0.0005009
 9,0.00025317,-0.00012536,0.11950730,0.11842627,-0.38386046,0.00258921,
 -0.00343689,0.01043595,0.00045325,0.00035526,-0.00020271,-0.00024437,-
 0.00003272,0.00081176,0.00097115,-0.00057567,0.00016074,0.00012446,-0.
 00004740,-0.00001556,0.00013100,0.00000266,0.00023855,0.01092663,-0.00
 075416,-0.01446621,-0.13057276,-0.11309523,0.38789203\\0.00000145,0.00
 000021,0.00000044,0.00000005,0.00000098,0.00000015,0.00000018,-0.00000
 008,0.00000032,-0.00000009,-0.00000010,0.00000052,0.00000047,0.0000003
 5,-0.00000016,-0.00000177,0.00000026,0.00000025,-0.00000002,-0.0000019
 2,-0.00000201,0.,0.00000009,0.00000081,-0.00000021,0.,-0.00000007,-0.0
 0000005,0.00000012,0.00000023,-0.00000001,0.00000009,-0.00000049\\\@


 ASKING DUMB QUESTIONS IS EASIER THAN CORECTING DUMB MISTAKES.
 Job cpu time:  0 days  0 hours 30 minutes 55.6 seconds.
 File lengths (MBytes):  RWF=   1730 Int=      0 D2E=      0 Chk=      7 Scr=      1
 Normal termination of Gaussian 03 at Tue May 18 15:13:40 2010.
