 Entering Gaussian System, Link 0=g03
 Initial command:
 /lustre/lwork/chinh/g03-em64t/g03/l1.exe /lustre/lwork/chinh/tmp/NQC-ppW3-4.xyz.3.com/Gau-29591.inp -scrdir=/lustre/lwork/chinh/tmp/NQC-ppW3-4.xyz.3.com/
 Entering Link 1 = /lustre/lwork/chinh/g03-em64t/g03/l1.exe PID=     29592.
  
 Copyright (c) 1988,1990,1992,1993,1995,1998,2003,2004, Gaussian, Inc.
                  All Rights Reserved.
  
 This is the Gaussian(R) 03 program.  It is based on the
 the Gaussian(R) 98 system (copyright 1998, Gaussian, Inc.),
 the Gaussian(R) 94 system (copyright 1995, Gaussian, Inc.),
 the Gaussian 92(TM) system (copyright 1992, Gaussian, Inc.),
 the Gaussian 90(TM) system (copyright 1990, Gaussian, Inc.),
 the Gaussian 88(TM) system (copyright 1988, Gaussian, Inc.),
 the Gaussian 86(TM) system (copyright 1986, Carnegie Mellon
 University), and the Gaussian 82(TM) system (copyright 1983,
 Carnegie Mellon University). Gaussian is a federally registered
 trademark of Gaussian, Inc.
  
 This software contains proprietary and confidential information,
 including trade secrets, belonging to Gaussian, Inc.
  
 This software is provided under written license and may be
 used, copied, transmitted, or stored only in accord with that
 written license.
  
 The following legend is applicable only to US Government
 contracts under FAR:
  
                    RESTRICTED RIGHTS LEGEND
  
 Use, reproduction and disclosure by the US Government is
 subject to restrictions as set forth in subparagraphs (a)
 and (c) of the Commercial Computer Software - Restricted
 Rights clause in FAR 52.227-19.
  
 Gaussian, Inc.
 340 Quinnipiac St., Bldg. 40, Wallingford CT 06492
  
  
 ---------------------------------------------------------------
 Warning -- This program may not be used in any manner that
 competes with the business of Gaussian, Inc. or will provide
 assistance to any competitor of Gaussian, Inc.  The licensee
 of this program is prohibited from giving any competitor of
 Gaussian, Inc. access to this program.  By using this program,
 the user acknowledges that Gaussian, Inc. is engaged in the
 business of creating and licensing software in the field of
 computational chemistry and represents and warrants to the
 licensee that it is not a competitor of Gaussian, Inc. and that
 it will not use this program in any manner prohibited above.
 ---------------------------------------------------------------
  

 Cite this work as:
 Gaussian 03, Revision D.01,
 M. J. Frisch, G. W. Trucks, H. B. Schlegel, G. E. Scuseria, 
 M. A. Robb, J. R. Cheeseman, J. A. Montgomery, Jr., T. Vreven, 
 K. N. Kudin, J. C. Burant, J. M. Millam, S. S. Iyengar, J. Tomasi, 
 V. Barone, B. Mennucci, M. Cossi, G. Scalmani, N. Rega, 
 G. A. Petersson, H. Nakatsuji, M. Hada, M. Ehara, K. Toyota, 
 R. Fukuda, J. Hasegawa, M. Ishida, T. Nakajima, Y. Honda, O. Kitao, 
 H. Nakai, M. Klene, X. Li, J. E. Knox, H. P. Hratchian, J. B. Cross, 
 V. Bakken, C. Adamo, J. Jaramillo, R. Gomperts, R. E. Stratmann, 
 O. Yazyev, A. J. Austin, R. Cammi, C. Pomelli, J. W. Ochterski, 
 P. Y. Ayala, K. Morokuma, G. A. Voth, P. Salvador, J. J. Dannenberg, 
 V. G. Zakrzewski, S. Dapprich, A. D. Daniels, M. C. Strain, 
 O. Farkas, D. K. Malick, A. D. Rabuck, K. Raghavachari, 
 J. B. Foresman, J. V. Ortiz, Q. Cui, A. G. Baboul, S. Clifford, 
 J. Cioslowski, B. B. Stefanov, G. Liu, A. Liashenko, P. Piskorz, 
 I. Komaromi, R. L. Martin, D. J. Fox, T. Keith, M. A. Al-Laham, 
 C. Y. Peng, A. Nanayakkara, M. Challacombe, P. M. W. Gill, 
 B. Johnson, W. Chen, M. W. Wong, C. Gonzalez, and J. A. Pople, 
 Gaussian, Inc., Wallingford CT, 2004.
 
 ******************************************
 Gaussian 03:  AM64L-G03RevD.01 13-Oct-2005
                18-May-2010 
 ******************************************
 %chk=ppW3-4.xyz.3.chk
 %nproc=4
 Will use up to    4 processors via shared memory.
 %mem=4GB
 ----------------------------------------------
 # Opt=Tight Int=Ultrafine freq mp2/aug-cc-pvDZ
 ----------------------------------------------
 1/7=10,18=20,38=1/1,3;
 2/9=110,17=6,18=5,40=1/2;
 3/5=16,7=10,11=9,16=1,25=1,30=1,75=5/1,2,3;
 4//1;
 5/5=2,38=5/2;
 8/6=4,10=1/1;
 9/15=2,16=-3/6;
 10/5=1/2;
 6/7=2,8=2,9=2,10=2/1;
 7/12=2/1,2,3,16;
 1/18=20/3(3);
 2/9=110/2;
 6/7=2,8=2,9=2,10=2/1;
 99//99;
 2/9=110/2;
 3/5=16,7=10,11=9,16=1,25=1,30=1,75=5/1,2,3;
 4/5=5,16=3/1;
 5/5=2,38=5/2;
 8/6=4,10=1/1;
 9/15=2,16=-3/6;
 10/5=1/2;
 7/12=2/1,2,3,16;
 1/18=20/3(-8);
 2/9=110/2;
 6/7=2,8=2,9=2,10=2/1;
 99//99;
 -----
 Str 5
 -----
 Symbolic Z-matrix:
 Charge =  2 Multiplicity = 1
 O                     0.00479  -1.87519  -0.13995 
 O                     1.90121   0.00445   0.08889 
 O                    -0.00479   1.87521  -0.13995 
 O                    -1.90122  -0.00447   0.08889 
 H                    -0.83797  -1.34598   0.02389 
 H                     0.00715  -2.80105   0.17738 
 H                     0.84487  -1.34157   0.02388 
 H                     2.49243   0.0059    0.86746 
 H                     2.50095   0.00593  -0.68411 
 H                     0.83797   1.34601   0.02388 
 H                    -0.84486   1.34159   0.02389 
 H                    -0.00715   2.80107   0.1774 
 H                    -2.49245  -0.00591   0.86744 
 H                    -2.50093  -0.00598  -0.68413 
 

 GradGradGradGradGradGradGradGradGradGradGradGradGradGradGradGradGradGrad
 Berny optimization.
 Initialization pass.
                           ----------------------------
                           !    Initial Parameters    !
                           ! (Angstroms and Degrees)  !
 --------------------------                            --------------------------
 ! Name  Definition              Value          Derivative Info.                !
 --------------------------------------------------------------------------------
 ! R1    R(1,5)                  1.0085         estimate D2E/DX2                !
 ! R2    R(1,6)                  0.9787         estimate D2E/DX2                !
 ! R3    R(1,7)                  1.0086         estimate D2E/DX2                !
 ! R4    R(2,7)                  1.7123         estimate D2E/DX2                !
 ! R5    R(2,8)                  0.9776         estimate D2E/DX2                !
 ! R6    R(2,9)                  0.9784         estimate D2E/DX2                !
 ! R7    R(2,10)                 1.713          estimate D2E/DX2                !
 ! R8    R(3,10)                 1.0085         estimate D2E/DX2                !
 ! R9    R(3,11)                 1.0086         estimate D2E/DX2                !
 ! R10   R(3,12)                 0.9787         estimate D2E/DX2                !
 ! R11   R(4,5)                  1.713          estimate D2E/DX2                !
 ! R12   R(4,11)                 1.7123         estimate D2E/DX2                !
 ! R13   R(4,13)                 0.9776         estimate D2E/DX2                !
 ! R14   R(4,14)                 0.9784         estimate D2E/DX2                !
 ! A1    A(5,1,6)              116.4698         estimate D2E/DX2                !
 ! A2    A(5,1,7)              113.0783         estimate D2E/DX2                !
 ! A3    A(6,1,7)              116.4749         estimate D2E/DX2                !
 ! A4    A(7,2,8)              113.8594         estimate D2E/DX2                !
 ! A5    A(7,2,9)              110.4486         estimate D2E/DX2                !
 ! A6    A(7,2,10)             103.3725         estimate D2E/DX2                !
 ! A7    A(8,2,9)              104.9821         estimate D2E/DX2                !
 ! A8    A(8,2,10)             113.8548         estimate D2E/DX2                !
 ! A9    A(9,2,10)             110.4446         estimate D2E/DX2                !
 ! A10   A(10,3,11)            113.078          estimate D2E/DX2                !
 ! A11   A(10,3,12)            116.4697         estimate D2E/DX2                !
 ! A12   A(11,3,12)            116.4747         estimate D2E/DX2                !
 ! A13   A(5,4,11)             103.3719         estimate D2E/DX2                !
 ! A14   A(5,4,13)             113.8567         estimate D2E/DX2                !
 ! A15   A(5,4,14)             110.4435         estimate D2E/DX2                !
 ! A16   A(11,4,13)            113.859          estimate D2E/DX2                !
 ! A17   A(11,4,14)            110.4486         estimate D2E/DX2                !
 ! A18   A(13,4,14)            104.9822         estimate D2E/DX2                !
 ! A19   A(1,5,4)              159.3522         estimate D2E/DX2                !
 ! A20   A(1,7,2)              159.3734         estimate D2E/DX2                !
 ! A21   A(2,10,3)             159.3512         estimate D2E/DX2                !
 ! A22   A(3,11,4)             159.3732         estimate D2E/DX2                !
 ! D1    D(6,1,5,4)            172.4553         estimate D2E/DX2                !
 ! D2    D(7,1,5,4)             33.5612         estimate D2E/DX2                !
 ! D3    D(5,1,7,2)            -33.5785         estimate D2E/DX2                !
 ! D4    D(6,1,7,2)           -172.4702         estimate D2E/DX2                !
 ! D5    D(8,2,7,1)            142.4083         estimate D2E/DX2                !
 ! D6    D(9,2,7,1)            -99.7778         estimate D2E/DX2                !
 ! D7    D(10,2,7,1)            18.3747         estimate D2E/DX2                !
 ! D8    D(7,2,10,3)           -18.3564         estimate D2E/DX2                !
 ! D9    D(8,2,10,3)          -142.3931         estimate D2E/DX2                !
 ! D10   D(9,2,10,3)            99.799          estimate D2E/DX2                !
 ! D11   D(11,3,10,2)           33.558          estimate D2E/DX2                !
 ! D12   D(12,3,10,2)          172.4513         estimate D2E/DX2                !
 ! D13   D(10,3,11,4)          -33.5804         estimate D2E/DX2                !
 ! D14   D(12,3,11,4)         -172.4716         estimate D2E/DX2                !
 ! D15   D(11,4,5,1)           -18.3603         estimate D2E/DX2                !
 ! D16   D(13,4,5,1)          -142.3972         estimate D2E/DX2                !
 ! D17   D(14,4,5,1)            99.7942         estimate D2E/DX2                !
 ! D18   D(5,4,11,3)            18.3775         estimate D2E/DX2                !
 ! D19   D(13,4,11,3)          142.4129         estimate D2E/DX2                !
 ! D20   D(14,4,11,3)          -99.7735         estimate D2E/DX2                !
 --------------------------------------------------------------------------------
 Trust Radius=3.00D-01 FncErr=1.00D-07 GrdErr=1.00D-07
 Number of steps in this run=  66 maximum allowed number of steps= 100.
 GradGradGradGradGradGradGradGradGradGradGradGradGradGradGradGradGradGrad

                          Input orientation:                          
 ---------------------------------------------------------------------
 Center     Atomic     Atomic              Coordinates (Angstroms)
 Number     Number      Type              X           Y           Z
 ---------------------------------------------------------------------
    1          8             0        0.004792   -1.875192   -0.139948
    2          8             0        1.901214    0.004450    0.088886
    3          8             0       -0.004792    1.875214   -0.139948
    4          8             0       -1.901215   -0.004474    0.088888
    5          1             0       -0.837967   -1.345981    0.023888
    6          1             0        0.007150   -2.801050    0.177384
    7          1             0        0.844871   -1.341572    0.023881
    8          1             0        2.492427    0.005903    0.867457
    9          1             0        2.500948    0.005933   -0.684113
   10          1             0        0.837967    1.346009    0.023877
   11          1             0       -0.844861    1.341588    0.023891
   12          1             0       -0.007153    2.801069    0.177395
   13          1             0       -2.492450   -0.005913    0.867442
   14          1             0       -2.500926   -0.005975   -0.684129
 ---------------------------------------------------------------------
                    Distance matrix (angstroms):
                    1          2          3          4          5
     1  O    0.000000
     2  O    2.679895   0.000000
     3  O    3.750418   2.680482   0.000000
     4  O    2.680450   3.802439   2.679928   0.000000
     5  H    1.008538   3.054669   3.331234   1.712998   0.000000
     6  H    0.978733   3.386169   4.687034   3.386816   1.689677
     7  H    1.008624   1.712268   3.331138   3.055003   1.682844
     8  H    3.277455   0.977603   3.278001   4.462103   3.691981
     9  H    3.172624   0.978371   3.173178   4.469528   3.671143
    10  H    3.331239   1.713039   1.008533   3.054693   3.171051
    11  H    3.331130   3.055011   1.008621   1.712306   2.687578
    12  H    4.687032   3.386853   0.978734   3.386204   4.232238
    13  H    3.277996   4.462123   3.277486   0.977603   2.290127
    14  H    3.173126   4.469508   3.172647   0.978372   2.249964
                    6          7          8          9         10
     6  H    0.000000
     7  H    1.689798   0.000000
     8  H    3.812058   2.289487   0.000000
     9  H    3.852319   2.249359   1.551593   0.000000
    10  H    4.232248   2.687590   2.290142   2.250013   0.000000
    11  H    4.232131   3.170890   3.692309   3.671469   1.682834
    12  H    5.602137   4.232137   3.812747   3.852993   1.689673
    13  H    3.812738   3.692329   4.984891   5.228909   3.692015
    14  H    3.852933   3.671438   5.228875   5.001888   3.671150
                   11         12         13         14
    11  H    0.000000
    12  H    1.689794   0.000000
    13  H    2.289517   3.812088   0.000000
    14  H    2.249393   3.852353   1.551594   0.000000
 Stoichiometry    H10O4(2+)
 Framework group  C1[X(H10O4)]
 Deg. of freedom    36
 Full point group                 C1
 Largest Abelian subgroup         C1      NOp   1
 Largest concise Abelian subgroup C1      NOp   1
                         Standard orientation:                         
 ---------------------------------------------------------------------
 Center     Atomic     Atomic              Coordinates (Angstroms)
 Number     Number      Type              X           Y           Z
 ---------------------------------------------------------------------
    1          8             0        0.004788   -1.875192   -0.139948
    2          8             0        1.901214    0.004446    0.088886
    3          8             0       -0.004788    1.875214   -0.139948
    4          8             0       -1.901215   -0.004470    0.088888
    5          1             0       -0.837970   -1.345979    0.023888
    6          1             0        0.007145   -2.801050    0.177384
    7          1             0        0.844868   -1.341574    0.023881
    8          1             0        2.492427    0.005898    0.867457
    9          1             0        2.500948    0.005928   -0.684113
   10          1             0        0.837970    1.346008    0.023877
   11          1             0       -0.844858    1.341590    0.023891
   12          1             0       -0.007148    2.801069    0.177395
   13          1             0       -2.492450   -0.005908    0.867442
   14          1             0       -2.500926   -0.005970   -0.684129
 ---------------------------------------------------------------------
 Rotational constants (GHZ):      3.6363472      3.4376915      1.8101061
 Standard basis: Aug-CC-pVDZ (5D, 7F)
 There are   182 symmetry adapted basis functions of A   symmetry.
 Integral buffers will be    131072 words long.
 Raffenetti 1 integral format.
 Two-electron integral symmetry is turned on.
   182 basis functions,   282 primitive gaussians,   190 cartesian basis functions
    20 alpha electrons       20 beta electrons
       nuclear repulsion energy       161.2728599592 Hartrees.
 NAtoms=   14 NActive=   14 NUniq=   14 SFac= 7.50D-01 NAtFMM=   80 NAOKFM=F Big=F
 One-electron integrals computed using PRISM.
 NBasis=   182 RedAO= T  NBF=   182
 NBsUse=   182 1.00D-06 NBFU=   182
 Harris functional with IExCor=  205 diagonalized for initial guess.
 ExpMin= 2.97D-02 ExpMax= 1.17D+04 ExpMxC= 4.01D+02 IAcc=3 IRadAn=         5 AccDes= 0.00D+00
 HarFok:  IExCor= 205 AccDes= 0.00D+00 IRadAn=         5 IDoV=1
 ScaDFX=  1.000000  1.000000  1.000000  1.000000
 Initial guess orbital symmetries:
       Occupied  (A) (A) (A) (A) (A) (A) (A) (A) (A) (A) (A) (A)
                 (A) (A) (A) (A) (A) (A) (A) (A)
       Virtual   (A) (A) (A) (A) (A) (A) (A) (A) (A) (A) (A) (A)
                 (A) (A) (A) (A) (A) (A) (A) (A) (A) (A) (A) (A)
                 (A) (A) (A) (A) (A) (A) (A) (A) (A) (A) (A) (A)
                 (A) (A) (A) (A) (A) (A) (A) (A) (A) (A) (A) (A)
                 (A) (A) (A) (A) (A) (A) (A) (A) (A) (A) (A) (A)
                 (A) (A) (A) (A) (A) (A) (A) (A) (A) (A) (A) (A)
                 (A) (A) (A) (A) (A) (A) (A) (A) (A) (A) (A) (A)
                 (A) (A) (A) (A) (A) (A) (A) (A) (A) (A) (A) (A)
                 (A) (A) (A) (A) (A) (A) (A) (A) (A) (A) (A) (A)
                 (A) (A) (A) (A) (A) (A) (A) (A) (A) (A) (A) (A)
                 (A) (A) (A) (A) (A) (A) (A) (A) (A) (A) (A) (A)
                 (A) (A) (A) (A) (A) (A) (A) (A) (A) (A) (A) (A)
                 (A) (A) (A) (A) (A) (A) (A) (A) (A) (A) (A) (A)
                 (A) (A) (A) (A) (A) (A)
 The electronic state of the initial guess is 1-A.
 Requested convergence on RMS density matrix=1.00D-08 within 128 cycles.
 Requested convergence on MAX density matrix=1.00D-06.
 Requested convergence on             energy=1.00D-06.
 No special actions if energy rises.
 Keep R1 integrals in memory in canonical form, NReq=   169079188.
 SCF Done:  E(RHF) =  -304.701343081     A.U. after   10 cycles
             Convg  =    0.6508D-08             -V/T =  2.0019
             S**2   =   0.0000
 ExpMin= 2.97D-02 ExpMax= 1.17D+04 ExpMxC= 4.01D+02 IAcc=3 IRadAn=         5 AccDes= 0.00D+00
 HarFok:  IExCor= 205 AccDes= 0.00D+00 IRadAn=         5 IDoV=1
 ScaDFX=  1.000000  1.000000  1.000000  1.000000
 Range of M.O.s used for correlation:     5   182
 NBasis=   182 NAE=    20 NBE=    20 NFC=     4 NFV=     0
 NROrb=    178 NOA=    16 NOB=    16 NVA=   162 NVB=   162
 Fully direct method using O(ONN) memory.
 JobTyp=1 Pass  1:  I=   5 to  20 NPSUse=  4 ParTrn=T ParDer=T DoDerP=T.
 Spin components of T(2) and E(2):
     alpha-alpha T2 =       0.2962872627D-01 E2=     -0.1124378854D+00
     alpha-beta  T2 =       0.1678688648D+00 E2=     -0.6582423591D+00
     beta-beta   T2 =       0.2962872627D-01 E2=     -0.1124378854D+00
 ANorm=    0.1107757337D+01
 E2 =    -0.8831181300D+00 EUMP2 =    -0.30558446121079D+03
 DoAtom=TTTTTTTTTTTTTT
          Differentiating once with respect to electric field.
                with respect to dipole field.
          Differentiating once with respect to nuclear coordinates.
          Store integrals in memory, NReq=   165451101.
          There are   1 degrees of freedom in the 1st order CPHF.
     1 vectors were produced by pass  0.
 AX will form   1 AO Fock derivatives at one time.
     1 vectors were produced by pass  1.
     1 vectors were produced by pass  2.
     1 vectors were produced by pass  3.
     1 vectors were produced by pass  4.
     1 vectors were produced by pass  5.
     1 vectors were produced by pass  6.
     1 vectors were produced by pass  7.
     1 vectors were produced by pass  8.
     1 vectors were produced by pass  9.
     1 vectors were produced by pass 10.
 Inv2:  IOpt= 1 Iter= 1 AM= 2.49D-16 Conv= 1.00D-12.
 Inverted reduced A of dimension   11 with in-core refinement.
 End of Minotr Frequency-dependent properties file   721 does not exist.

 **********************************************************************

            Population analysis using the SCF density.

 **********************************************************************

 Orbital symmetries:
       Occupied  (A) (A) (A) (A) (A) (A) (A) (A) (A) (A) (A) (A)
                 (A) (A) (A) (A) (A) (A) (A) (A)
       Virtual   (A) (A) (A) (A) (A) (A) (A) (A) (A) (A) (A) (A)
                 (A) (A) (A) (A) (A) (A) (A) (A) (A) (A) (A) (A)
                 (A) (A) (A) (A) (A) (A) (A) (A) (A) (A) (A) (A)
                 (A) (A) (A) (A) (A) (A) (A) (A) (A) (A) (A) (A)
                 (A) (A) (A) (A) (A) (A) (A) (A) (A) (A) (A) (A)
                 (A) (A) (A) (A) (A) (A) (A) (A) (A) (A) (A) (A)
                 (A) (A) (A) (A) (A) (A) (A) (A) (A) (A) (A) (A)
                 (A) (A) (A) (A) (A) (A) (A) (A) (A) (A) (A) (A)
                 (A) (A) (A) (A) (A) (A) (A) (A) (A) (A) (A) (A)
                 (A) (A) (A) (A) (A) (A) (A) (A) (A) (A) (A) (A)
                 (A) (A) (A) (A) (A) (A) (A) (A) (A) (A) (A) (A)
                 (A) (A) (A) (A) (A) (A) (A) (A) (A) (A) (A) (A)
                 (A) (A) (A) (A) (A) (A) (A) (A) (A) (A) (A) (A)
                 (A) (A) (A) (A) (A) (A)
 The electronic state is 1-A.
 Alpha  occ. eigenvalues --  -21.04463 -21.04462 -20.97560 -20.97560  -1.83886
 Alpha  occ. eigenvalues --   -1.83589  -1.74899  -1.74610  -1.19520  -1.18823
 Alpha  occ. eigenvalues --   -1.18097  -1.18026  -1.10181  -1.10101  -1.00442
 Alpha  occ. eigenvalues --   -0.99108  -0.98539  -0.97932  -0.92021  -0.90996
 Alpha virt. eigenvalues --   -0.25022  -0.21063  -0.21045  -0.18710  -0.17744
 Alpha virt. eigenvalues --   -0.16077  -0.15856  -0.15006  -0.12502  -0.12409
 Alpha virt. eigenvalues --   -0.10849  -0.10641  -0.10052  -0.07842  -0.07618
 Alpha virt. eigenvalues --   -0.07169  -0.05378  -0.04802  -0.04712  -0.03931
 Alpha virt. eigenvalues --   -0.03294  -0.02260  -0.01962  -0.01615  -0.00749
 Alpha virt. eigenvalues --   -0.00326  -0.00232   0.00932   0.01353   0.03518
 Alpha virt. eigenvalues --    0.04317   0.05199   0.07220   0.07617   0.08214
 Alpha virt. eigenvalues --    0.11486   0.13940   0.15154   0.16490   0.18221
 Alpha virt. eigenvalues --    0.19079   0.19949   0.21066   0.22568   0.23033
 Alpha virt. eigenvalues --    0.25252   0.25845   0.27023   0.27237   0.27469
 Alpha virt. eigenvalues --    0.27962   0.29119   0.31153   0.31767   0.31906
 Alpha virt. eigenvalues --    0.35017   0.35020   0.35575   0.37118   0.37236
 Alpha virt. eigenvalues --    0.41634   0.42385   0.42780   0.45158   0.51465
 Alpha virt. eigenvalues --    0.52098   0.53042   0.55145   0.56350   0.58911
 Alpha virt. eigenvalues --    0.65627   0.69067   0.70985   0.74283   0.74326
 Alpha virt. eigenvalues --    0.77056   0.77781   0.77817   0.79845   0.82402
 Alpha virt. eigenvalues --    0.84733   0.89014   0.92868   0.94988   0.99042
 Alpha virt. eigenvalues --    0.99684   1.00275   1.00568   1.07661   1.10971
 Alpha virt. eigenvalues --    1.15220   1.16115   1.17252   1.21823   1.22580
 Alpha virt. eigenvalues --    1.25659   1.28353   1.34845   1.47527   1.49981
 Alpha virt. eigenvalues --    1.52011   1.54714   1.56711   1.58943   1.59224
 Alpha virt. eigenvalues --    1.62403   1.62941   1.67001   1.70478   1.72619
 Alpha virt. eigenvalues --    1.74710   1.81352   1.84128   1.84527   1.95112
 Alpha virt. eigenvalues --    2.01508   2.02205   2.05238   2.08805   2.09860
 Alpha virt. eigenvalues --    2.10461   2.12272   2.17840   2.19989   2.22538
 Alpha virt. eigenvalues --    2.24925   2.27876   2.35506   2.36125   2.37881
 Alpha virt. eigenvalues --    2.38560   2.44799   2.49021   2.51535   2.58239
 Alpha virt. eigenvalues --    2.60247   2.62157   2.62928   2.68019   2.69975
 Alpha virt. eigenvalues --    2.81895   2.87279   3.27087   3.29242   3.31015
 Alpha virt. eigenvalues --    3.36194   3.36680   3.37682   3.39887   3.45145
 Alpha virt. eigenvalues --    3.56417   3.57778   3.68541   3.70691   3.71280
 Alpha virt. eigenvalues --    3.81850   3.85555   3.85620   3.91675   3.92210
 Alpha virt. eigenvalues --    3.92539   3.96978
          Condensed to atoms (all electrons):
              1          2          3          4          5          6
     1  O    7.410649  -0.019143  -0.013930  -0.019130   0.254982   0.342973
     2  O   -0.019143   8.184957  -0.019128   0.009088  -0.002591  -0.007529
     3  O   -0.013930  -0.019128   7.410625  -0.019143   0.000522   0.001091
     4  O   -0.019130   0.009088  -0.019143   8.184960  -0.028747  -0.007512
     5  H    0.254982  -0.002591   0.000522  -0.028747   0.311050  -0.035157
     6  H    0.342973  -0.007529   0.001091  -0.007512  -0.035157   0.387161
     7  H    0.254804  -0.028860   0.000528  -0.002583  -0.000350  -0.035148
     8  H   -0.000524   0.344804  -0.000518   0.000273  -0.000208   0.000356
     9  H   -0.003154   0.356322  -0.003153  -0.000226   0.000578  -0.000300
    10  H    0.000522  -0.028739   0.254986  -0.002591  -0.000470  -0.000768
    11  H    0.000528  -0.002582   0.254807  -0.028853   0.002136  -0.000768
    12  H    0.001091  -0.007511   0.342970  -0.007528  -0.000768   0.000237
    13  H   -0.000518   0.000273  -0.000524   0.344804  -0.001781   0.000356
    14  H   -0.003153  -0.000226  -0.003154   0.356322  -0.000713  -0.000299
              7          8          9         10         11         12
     1  O    0.254804  -0.000524  -0.003154   0.000522   0.000528   0.001091
     2  O   -0.028860   0.344804   0.356322  -0.028739  -0.002582  -0.007511
     3  O    0.000528  -0.000518  -0.003153   0.254986   0.254807   0.342970
     4  O   -0.002583   0.000273  -0.000226  -0.002591  -0.028853  -0.007528
     5  H   -0.000350  -0.000208   0.000578  -0.000470   0.002136  -0.000768
     6  H   -0.035148   0.000356  -0.000300  -0.000768  -0.000768   0.000237
     7  H    0.310904  -0.001784  -0.000716   0.002136  -0.000474  -0.000768
     8  H   -0.001784   0.392188  -0.043269  -0.001781  -0.000208   0.000356
     9  H   -0.000716  -0.043269   0.378854  -0.000713   0.000580  -0.000299
    10  H    0.002136  -0.001781  -0.000713   0.311054  -0.000350  -0.035156
    11  H   -0.000474  -0.000208   0.000580  -0.000350   0.310909  -0.035149
    12  H   -0.000768   0.000356  -0.000299  -0.035156  -0.035149   0.387157
    13  H   -0.000208  -0.000097  -0.000220  -0.000208  -0.001783   0.000356
    14  H    0.000580  -0.000220  -0.000020   0.000578  -0.000716  -0.000300
             13         14
     1  O   -0.000518  -0.003153
     2  O    0.000273  -0.000226
     3  O   -0.000524  -0.003154
     4  O    0.344804   0.356322
     5  H   -0.001781  -0.000713
     6  H    0.000356  -0.000299
     7  H   -0.000208   0.000580
     8  H   -0.000097  -0.000220
     9  H   -0.000220  -0.000020
    10  H   -0.000208   0.000578
    11  H   -0.001783  -0.000716
    12  H    0.000356  -0.000300
    13  H    0.392188  -0.043269
    14  H   -0.043269   0.378854
 Mulliken atomic charges:
              1
     1  O   -0.205995
     2  O   -0.779134
     3  O   -0.205980
     4  O   -0.779134
     5  H    0.501517
     6  H    0.355309
     7  H    0.501940
     8  H    0.310633
     9  H    0.315737
    10  H    0.501500
    11  H    0.501923
    12  H    0.355314
    13  H    0.310633
    14  H    0.315737
 Sum of Mulliken charges=   2.00000
 Atomic charges with hydrogens summed into heavy atoms:
              1
     1  O    1.152771
     2  O   -0.152764
     3  O    1.152757
     4  O   -0.152764
     5  H    0.000000
     6  H    0.000000
     7  H    0.000000
     8  H    0.000000
     9  H    0.000000
    10  H    0.000000
    11  H    0.000000
    12  H    0.000000
    13  H    0.000000
    14  H    0.000000
 Sum of Mulliken charges=   2.00000
 Electronic spatial extent (au):  <R**2>=   599.7235
 Charge=     2.0000 electrons
 Dipole moment (field-independent basis, Debye):
    X=     0.0000    Y=     0.0002    Z=     1.7347  Tot=     1.7347
 Quadrupole moment (field-independent basis, Debye-Ang):
   XX=     9.9787   YY=     9.3824   ZZ=   -20.3983
   XY=    -0.0027   XZ=     0.0000   YZ=     0.0002
 Traceless Quadrupole moment (field-independent basis, Debye-Ang):
   XX=    10.3244   YY=     9.7281   ZZ=   -20.0525
   XY=    -0.0027   XZ=     0.0000   YZ=     0.0002
 Octapole moment (field-independent basis, Debye-Ang**2):
  XXX=     0.0000  YYY=     0.0017  ZZZ=     2.3680  XYY=     0.0000
  XXY=    -0.0003  XXZ=     2.7466  XZZ=     0.0000  YZZ=     0.0000
  YYZ=    10.0255  XYZ=    -0.0191
 Hexadecapole moment (field-independent basis, Debye-Ang**3):
 XXXX=   -67.3893 YYYY=    -2.8368 ZZZZ=   -20.8775 XXXY=     0.5330
 XXXZ=    -0.0007 YYYX=    -0.6748 YYYZ=     0.0010 ZZZX=     0.0003
 ZZZY=     0.0001 XXYY=   -93.4801 XXZZ=   -19.5032 YYZZ=   -54.2810
 XXYZ=     0.0004 YYXZ=    -0.0001 ZZXY=     0.0919
 N-N= 1.612728599592D+02 E-N=-1.028190168689D+03  KE= 3.041380681577D+02
 ***** Axes restored to original set *****
 -------------------------------------------------------------------
 Center     Atomic                   Forces (Hartrees/Bohr)
 Number     Number              X              Y              Z
 -------------------------------------------------------------------
    1          8          -0.000004459    0.002398743   -0.003216485
    2          8          -0.002289848   -0.000002896   -0.000419693
    3          8           0.000003753   -0.002398180   -0.003216751
    4          8           0.002290339    0.000004268   -0.000420424
    5          1           0.003041770   -0.001832024    0.001154549
    6          1          -0.000004068    0.001372640    0.001185181
    7          1          -0.003035441   -0.001847301    0.001152600
    8          1           0.001009768    0.000001913   -0.001700328
    9          1           0.001169405    0.000002560    0.001844485
   10          1          -0.003040394    0.001830926    0.001154690
   11          1           0.003034304    0.001846941    0.001152357
   12          1           0.000004157   -0.001372831    0.001185132
   13          1          -0.001009678   -0.000002542   -0.001700092
   14          1          -0.001169608   -0.000002218    0.001844778
 -------------------------------------------------------------------
 Cartesian Forces:  Max     0.003216751 RMS     0.001709582

 GradGradGradGradGradGradGradGradGradGradGradGradGradGradGradGradGradGrad
 Berny optimization.
 Internal  Forces:  Max     0.003409822 RMS     0.001178179
 Search for a local minimum.
 Step number   1 out of a maximum of  66
 All quantities printed in internal units (Hartrees-Bohrs-Radians)
 Second derivative matrix not updated -- first step.
     Eigenvalues ---    0.00235   0.00415   0.00487   0.00651   0.01067
     Eigenvalues ---    0.02545   0.03185   0.06398   0.07219   0.07230
     Eigenvalues ---    0.07637   0.07677   0.08020   0.09079   0.09940
     Eigenvalues ---    0.11032   0.11032   0.12313   0.12429   0.14101
     Eigenvalues ---    0.14482   0.16000   0.18374   0.19869   0.20530
     Eigenvalues ---    0.24461   0.44643   0.45132   0.46078   0.46212
     Eigenvalues ---    0.51632   0.51632   0.51702   0.51702   0.51853
     Eigenvalues ---    0.518531000.000001000.000001000.000001000.00000
     Eigenvalues --- 1000.000001000.000001000.000001000.000001000.00000
     Eigenvalues --- 1000.000001000.000001000.000001000.000001000.00000
     Eigenvalues --- 1000.000001000.000001000.000001000.000001000.00000
     Eigenvalues --- 1000.00000
 RFO step:  Lambda=-7.04014937D-04.
 Linear search not attempted -- first point.
 Iteration  1 RMS(Cart)=  0.02818730 RMS(Int)=  0.00059884
 Iteration  2 RMS(Cart)=  0.00068800 RMS(Int)=  0.00039817
 Iteration  3 RMS(Cart)=  0.00000018 RMS(Int)=  0.00039817
 Variable       Old X    -DE/DX   Delta X   Delta X   Delta X     New X
                                 (Linear)    (Quad)   (Total)
    R1        1.90586  -0.00341   0.00000  -0.00737  -0.00737   1.89850
    R2        1.84954  -0.00091   0.00000  -0.00177  -0.00177   1.84777
    R3        1.90602  -0.00341   0.00000  -0.00737  -0.00737   1.89865
    R4        3.23572  -0.00007   0.00000  -0.00102  -0.00102   3.23470
    R5        1.84740  -0.00074   0.00000  -0.00143  -0.00143   1.84597
    R6        1.84885  -0.00074   0.00000  -0.00143  -0.00143   1.84742
    R7        3.23717  -0.00008   0.00000  -0.00106  -0.00106   3.23611
    R8        1.90585  -0.00341   0.00000  -0.00736  -0.00736   1.89849
    R9        1.90602  -0.00341   0.00000  -0.00737  -0.00737   1.89865
   R10        1.84954  -0.00091   0.00000  -0.00177  -0.00177   1.84777
   R11        3.23710  -0.00008   0.00000  -0.00105  -0.00105   3.23605
   R12        3.23579  -0.00008   0.00000  -0.00103  -0.00103   3.23476
   R13        1.84740  -0.00074   0.00000  -0.00143  -0.00143   1.84597
   R14        1.84885  -0.00074   0.00000  -0.00143  -0.00143   1.84742
    A1        2.03278  -0.00056   0.00000  -0.01888  -0.02002   2.01276
    A2        1.97359  -0.00072   0.00000  -0.01885  -0.01983   1.95376
    A3        2.03287  -0.00056   0.00000  -0.01887  -0.02002   2.01285
    A4        1.98722   0.00032   0.00000   0.00284   0.00283   1.99005
    A5        1.92769   0.00053   0.00000   0.00469   0.00467   1.93237
    A6        1.80419   0.00010   0.00000   0.00400   0.00395   1.80814
    A7        1.83228  -0.00169   0.00000  -0.01802  -0.01802   1.81426
    A8        1.98714   0.00032   0.00000   0.00285   0.00284   1.98998
    A9        1.92762   0.00053   0.00000   0.00470   0.00468   1.93230
   A10        1.97358  -0.00072   0.00000  -0.01884  -0.01983   1.95375
   A11        2.03278  -0.00056   0.00000  -0.01888  -0.02003   2.01275
   A12        2.03287  -0.00056   0.00000  -0.01887  -0.02002   2.01285
   A13        1.80418   0.00010   0.00000   0.00400   0.00395   1.80813
   A14        1.98717   0.00032   0.00000   0.00284   0.00283   1.99000
   A15        1.92760   0.00053   0.00000   0.00470   0.00468   1.93228
   A16        1.98721   0.00032   0.00000   0.00284   0.00283   1.99005
   A17        1.92769   0.00053   0.00000   0.00469   0.00467   1.93237
   A18        1.83229  -0.00169   0.00000  -0.01803  -0.01802   1.81426
   A19        2.78122   0.00009   0.00000  -0.00028  -0.00031   2.78091
   A20        2.78159   0.00009   0.00000  -0.00027  -0.00030   2.78129
   A21        2.78120   0.00009   0.00000  -0.00028  -0.00031   2.78089
   A22        2.78159   0.00009   0.00000  -0.00027  -0.00030   2.78129
    D1        3.00991  -0.00120   0.00000  -0.03401  -0.03356   2.97635
    D2        0.58575   0.00132   0.00000   0.04367   0.04321   0.62897
    D3       -0.58605  -0.00132   0.00000  -0.04367  -0.04321  -0.62926
    D4       -3.01017   0.00120   0.00000   0.03402   0.03357  -2.97661
    D5        2.48549   0.00073   0.00000   0.00340   0.00341   2.48890
    D6       -1.74145  -0.00085   0.00000  -0.01444  -0.01446  -1.75591
    D7        0.32070   0.00007   0.00000  -0.00457  -0.00456   0.31614
    D8       -0.32038  -0.00007   0.00000   0.00456   0.00455  -0.31583
    D9       -2.48523  -0.00073   0.00000  -0.00341  -0.00341  -2.48864
   D10        1.74182   0.00085   0.00000   0.01443   0.01444   1.75626
   D11        0.58570   0.00132   0.00000   0.04367   0.04322   0.62891
   D12        3.00984  -0.00120   0.00000  -0.03400  -0.03355   2.97629
   D13       -0.58609  -0.00132   0.00000  -0.04366  -0.04321  -0.62929
   D14       -3.01020   0.00120   0.00000   0.03402   0.03357  -2.97663
   D15       -0.32045  -0.00007   0.00000   0.00456   0.00456  -0.31589
   D16       -2.48530  -0.00073   0.00000  -0.00340  -0.00341  -2.48871
   D17        1.74174   0.00085   0.00000   0.01444   0.01445   1.75619
   D18        0.32075   0.00007   0.00000  -0.00458  -0.00457   0.31618
   D19        2.48557   0.00073   0.00000   0.00339   0.00340   2.48897
   D20       -1.74138  -0.00085   0.00000  -0.01446  -0.01447  -1.75584
         Item               Value     Threshold  Converged?
 Maximum Force            0.003410     0.000015     NO 
 RMS     Force            0.001178     0.000010     NO 
 Maximum Displacement     0.074683     0.000060     NO 
 RMS     Displacement     0.028411     0.000040     NO 
 Predicted change in Energy=-3.382408D-04
 GradGradGradGradGradGradGradGradGradGradGradGradGradGradGradGradGradGrad

                          Input orientation:                          
 ---------------------------------------------------------------------
 Center     Atomic     Atomic              Coordinates (Angstroms)
 Number     Number      Type              X           Y           Z
 ---------------------------------------------------------------------
    1          8             0        0.004790   -1.875906   -0.178786
    2          8             0        1.887075    0.004424    0.103393
    3          8             0       -0.004790    1.875926   -0.178785
    4          8             0       -1.887075   -0.004445    0.103393
    5          1             0       -0.829183   -1.347624    0.007519
    6          1             0        0.007119   -2.789991    0.168390
    7          1             0        0.836082   -1.343253    0.007509
    8          1             0        2.460799    0.005826    0.894004
    9          1             0        2.516555    0.005981   -0.644593
   10          1             0        0.829185    1.347650    0.007510
   11          1             0       -0.836074    1.343267    0.007518
   12          1             0       -0.007122    2.790008    0.168399
   13          1             0       -2.460819   -0.005837    0.893990
   14          1             0       -2.516536   -0.006017   -0.644609
 ---------------------------------------------------------------------
                    Distance matrix (angstroms):
                    1          2          3          4          5
     1  O    0.000000
     2  O    2.675494   0.000000
     3  O    3.751845   2.676060   0.000000
     4  O    2.676031   3.774160   2.675522   0.000000
     5  H    1.004640   3.035669   3.332508   1.712442   0.000000
     6  H    0.977797   3.368563   4.678830   3.369192   1.675023
     7  H    1.004725   1.711729   3.332399   3.035981   1.665271
     8  H    3.274718   0.976845   3.275253   4.419183   3.666288
     9  H    3.172923   0.977615   3.173460   4.466715   3.667623
    10  H    3.332514   1.712478   1.004637   3.035691   3.164599
    11  H    3.332393   3.035989   1.004722   1.711761   2.690901
    12  H    4.678829   3.369226   0.977798   3.368593   4.221572
    13  H    3.275245   4.419200   3.274745   0.976845   2.290951
    14  H    3.173415   4.466699   3.172943   0.977615   2.252186
                    6          7          8          9         10
     6  H    0.000000
     7  H    1.675146   0.000000
     8  H    3.789942   2.290326   0.000000
     9  H    3.843913   2.251590   1.539607   0.000000
    10  H    4.221581   2.690912   2.290967   2.252228   0.000000
    11  H    4.221455   3.164411   3.666603   3.667928   1.665264
    12  H    5.580017   4.221460   3.790621   3.844568   1.675020
    13  H    3.790610   3.666617   4.921632   5.209762   3.666319
    14  H    3.844517   3.667902   5.209734   5.033105   3.667631
                   11         12         13         14
    11  H    0.000000
    12  H    1.675142   0.000000
    13  H    2.290352   3.789968   0.000000
    14  H    2.251619   3.843942   1.539607   0.000000
 Stoichiometry    H10O4(2+)
 Framework group  C1[X(H10O4)]
 Deg. of freedom    36
 Full point group                 C1
 Largest Abelian subgroup         C1      NOp   1
 Largest concise Abelian subgroup C1      NOp   1
                         Standard orientation:                         
 ---------------------------------------------------------------------
 Center     Atomic     Atomic              Coordinates (Angstroms)
 Number     Number      Type              X           Y           Z
 ---------------------------------------------------------------------
    1          8             0        0.005470   -1.875905   -0.170676
    2          8             0        1.887073    0.005109    0.111504
    3          8             0       -0.005471    1.875924   -0.170675
    4          8             0       -1.887073   -0.005130    0.111504
    5          1             0       -0.828694   -1.347925    0.015629
    6          1             0        0.008131   -2.789988    0.176500
    7          1             0        0.836569   -1.342949    0.015620
    8          1             0        2.460797    0.006718    0.902115
    9          1             0        2.516552    0.006894   -0.636482
   10          1             0        0.828696    1.347951    0.015621
   11          1             0       -0.836561    1.342964    0.015629
   12          1             0       -0.008134    2.790005    0.176509
   13          1             0       -2.460816   -0.006730    0.902100
   14          1             0       -2.516533   -0.006930   -0.636498
 ---------------------------------------------------------------------
 Rotational constants (GHZ):      3.6253629      3.4728564      1.8228492
 Standard basis: Aug-CC-pVDZ (5D, 7F)
 There are   182 symmetry adapted basis functions of A   symmetry.
 Integral buffers will be    131072 words long.
 Raffenetti 1 integral format.
 Two-electron integral symmetry is turned on.
   182 basis functions,   282 primitive gaussians,   190 cartesian basis functions
    20 alpha electrons       20 beta electrons
       nuclear repulsion energy       161.6290182605 Hartrees.
 NAtoms=   14 NActive=   14 NUniq=   14 SFac= 7.50D-01 NAtFMM=   80 NAOKFM=F Big=F
 One-electron integrals computed using PRISM.
 NBasis=   182 RedAO= T  NBF=   182
 NBsUse=   182 1.00D-06 NBFU=   182
 Initial guess read from the read-write file:
 Initial guess orbital symmetries:
       Occupied  (A) (A) (A) (A) (A) (A) (A) (A) (A) (A) (A) (A)
                 (A) (A) (A) (A) (A) (A) (A) (A)
       Virtual   (A) (A) (A) (A) (A) (A) (A) (A) (A) (A) (A) (A)
                 (A) (A) (A) (A) (A) (A) (A) (A) (A) (A) (A) (A)
                 (A) (A) (A) (A) (A) (A) (A) (A) (A) (A) (A) (A)
                 (A) (A) (A) (A) (A) (A) (A) (A) (A) (A) (A) (A)
                 (A) (A) (A) (A) (A) (A) (A) (A) (A) (A) (A) (A)
                 (A) (A) (A) (A) (A) (A) (A) (A) (A) (A) (A) (A)
                 (A) (A) (A) (A) (A) (A) (A) (A) (A) (A) (A) (A)
                 (A) (A) (A) (A) (A) (A) (A) (A) (A) (A) (A) (A)
                 (A) (A) (A) (A) (A) (A) (A) (A) (A) (A) (A) (A)
                 (A) (A) (A) (A) (A) (A) (A) (A) (A) (A) (A) (A)
                 (A) (A) (A) (A) (A) (A) (A) (A) (A) (A) (A) (A)
                 (A) (A) (A) (A) (A) (A) (A) (A) (A) (A) (A) (A)
                 (A) (A) (A) (A) (A) (A) (A) (A) (A) (A) (A) (A)
                 (A) (A) (A) (A) (A) (A)
 Harris functional with IExCor=  205 diagonalized for initial guess.
 ExpMin= 2.97D-02 ExpMax= 1.17D+04 ExpMxC= 4.01D+02 IAcc=3 IRadAn=         5 AccDes= 0.00D+00
 HarFok:  IExCor= 205 AccDes= 0.00D+00 IRadAn=         5 IDoV=1
 ScaDFX=  1.000000  1.000000  1.000000  1.000000
 Requested convergence on RMS density matrix=1.00D-08 within 128 cycles.
 Requested convergence on MAX density matrix=1.00D-06.
 Requested convergence on             energy=1.00D-06.
 No special actions if energy rises.
 Keep R1 integrals in memory in canonical form, NReq=   169079188.
 SCF Done:  E(RHF) =  -304.702243245     A.U. after    9 cycles
             Convg  =    0.2884D-08             -V/T =  2.0017
             S**2   =   0.0000
 ExpMin= 2.97D-02 ExpMax= 1.17D+04 ExpMxC= 4.01D+02 IAcc=3 IRadAn=         5 AccDes= 0.00D+00
 HarFok:  IExCor= 205 AccDes= 0.00D+00 IRadAn=         5 IDoV=1
 ScaDFX=  1.000000  1.000000  1.000000  1.000000
 Range of M.O.s used for correlation:     5   182
 NBasis=   182 NAE=    20 NBE=    20 NFC=     4 NFV=     0
 NROrb=    178 NOA=    16 NOB=    16 NVA=   162 NVB=   162
 Fully direct method using O(ONN) memory.
 JobTyp=1 Pass  1:  I=   5 to  20 NPSUse=  4 ParTrn=T ParDer=T DoDerP=T.
 Spin components of T(2) and E(2):
     alpha-alpha T2 =       0.2957587162D-01 E2=     -0.1123689870D+00
     alpha-beta  T2 =       0.1675885428D+00 E2=     -0.6579761134D+00
     beta-beta   T2 =       0.2957587162D-01 E2=     -0.1123689870D+00
 ANorm=    0.1107583083D+01
 E2 =    -0.8827140873D+00 EUMP2 =    -0.30558495733236D+03
 DoAtom=TTTTTTTTTTTTTT
          Differentiating once with respect to electric field.
                with respect to dipole field.
          Differentiating once with respect to nuclear coordinates.
          Store integrals in memory, NReq=   165451101.
          There are   1 degrees of freedom in the 1st order CPHF.
     1 vectors were produced by pass  0.
 AX will form   1 AO Fock derivatives at one time.
     1 vectors were produced by pass  1.
     1 vectors were produced by pass  2.
     1 vectors were produced by pass  3.
     1 vectors were produced by pass  4.
     1 vectors were produced by pass  5.
     1 vectors were produced by pass  6.
     1 vectors were produced by pass  7.
     1 vectors were produced by pass  8.
     1 vectors were produced by pass  9.
     1 vectors were produced by pass 10.
 Inv2:  IOpt= 1 Iter= 1 AM= 2.70D-16 Conv= 1.00D-12.
 Inverted reduced A of dimension   11 with in-core refinement.
 End of Minotr Frequency-dependent properties file   721 does not exist.
 ***** Axes restored to original set *****
 -------------------------------------------------------------------
 Center     Atomic                   Forces (Hartrees/Bohr)
 Number     Number              X              Y              Z
 -------------------------------------------------------------------
    1          8           0.000001859    0.000182965   -0.003083601
    2          8          -0.000558055    0.000001899   -0.000144987
    3          8          -0.000001832   -0.000182618   -0.003083743
    4          8           0.000558321   -0.000000596   -0.000145358
    5          1           0.000336919   -0.000292617    0.001111807
    6          1           0.000001259   -0.000311200    0.001052495
    7          1          -0.000340633   -0.000297073    0.001110099
    8          1           0.000515190    0.000000805    0.000032426
    9          1           0.000557187    0.000001145   -0.000078028
   10          1          -0.000336277    0.000291786    0.001111853
   11          1           0.000339664    0.000296542    0.001109948
   12          1          -0.000001197    0.000311134    0.001052453
   13          1          -0.000515052   -0.000001268    0.000032554
   14          1          -0.000557352   -0.000000906   -0.000077919
 -------------------------------------------------------------------
 Cartesian Forces:  Max     0.003083743 RMS     0.000831907

 GradGradGradGradGradGradGradGradGradGradGradGradGradGradGradGradGradGrad
 Berny optimization.
 Internal  Forces:  Max     0.000712836 RMS     0.000368097
 Search for a local minimum.
 Step number   2 out of a maximum of  66
 All quantities printed in internal units (Hartrees-Bohrs-Radians)
 Update second derivatives using D2CorX and points  1  2
 Trust test= 1.47D+00 RLast= 1.28D-01 DXMaxT set to 3.84D-01
     Eigenvalues ---    0.00242   0.00415   0.00487   0.00661   0.01106
     Eigenvalues ---    0.01755   0.02952   0.06290   0.07222   0.07314
     Eigenvalues ---    0.07627   0.07674   0.07961   0.09244   0.09904
     Eigenvalues ---    0.11094   0.11097   0.12194   0.12480   0.13739
     Eigenvalues ---    0.14265   0.16096   0.18302   0.19884   0.20430
     Eigenvalues ---    0.24291   0.44666   0.45086   0.46041   0.49101
     Eigenvalues ---    0.51632   0.51676   0.51702   0.51813   0.51853
     Eigenvalues ---    0.562551000.000001000.000001000.000001000.00000
     Eigenvalues --- 1000.000001000.000001000.000001000.000001000.00000
     Eigenvalues --- 1000.000001000.000001000.000001000.000001000.00000
     Eigenvalues --- 1000.000001000.000001000.000001000.000001000.00000
     Eigenvalues --- 1000.00000
 RFO step:  Lambda=-1.31823574D-04.
 Quartic linear search produced a step of  0.54565.
 Iteration  1 RMS(Cart)=  0.01464837 RMS(Int)=  0.00073832
 Iteration  2 RMS(Cart)=  0.00044095 RMS(Int)=  0.00059225
 Iteration  3 RMS(Cart)=  0.00000034 RMS(Int)=  0.00059225
 Variable       Old X    -DE/DX   Delta X   Delta X   Delta X     New X
                                 (Linear)    (Quad)   (Total)
    R1        1.89850   0.00016  -0.00402   0.00292  -0.00110   1.89740
    R2        1.84777   0.00066  -0.00096   0.00255   0.00159   1.84935
    R3        1.89865   0.00015  -0.00402   0.00291  -0.00111   1.89755
    R4        3.23470   0.00044  -0.00056   0.00962   0.00906   3.24376
    R5        1.84597   0.00033  -0.00078   0.00144   0.00066   1.84663
    R6        1.84742   0.00042  -0.00078   0.00171   0.00093   1.84835
    R7        3.23611   0.00043  -0.00058   0.00957   0.00899   3.24510
    R8        1.89849   0.00016  -0.00402   0.00292  -0.00110   1.89739
    R9        1.89865   0.00015  -0.00402   0.00291  -0.00111   1.89754
   R10        1.84777   0.00066  -0.00097   0.00255   0.00159   1.84936
   R11        3.23605   0.00043  -0.00057   0.00958   0.00900   3.24505
   R12        3.23476   0.00044  -0.00056   0.00961   0.00904   3.24380
   R13        1.84597   0.00033  -0.00078   0.00144   0.00066   1.84663
   R14        1.84742   0.00042  -0.00078   0.00171   0.00093   1.84835
    A1        2.01276  -0.00034  -0.01093  -0.00911  -0.02177   1.99099
    A2        1.95376  -0.00049  -0.01082  -0.00816  -0.02024   1.93352
    A3        2.01285  -0.00034  -0.01092  -0.00913  -0.02178   1.99108
    A4        1.99005   0.00003   0.00154  -0.00051   0.00099   1.99105
    A5        1.93237   0.00007   0.00255  -0.00075   0.00175   1.93412
    A6        1.80814   0.00015   0.00215   0.00205   0.00426   1.81240
    A7        1.81426  -0.00033  -0.00983   0.00033  -0.00950   1.80476
    A8        1.98998   0.00003   0.00155  -0.00050   0.00101   1.99098
    A9        1.93230   0.00007   0.00255  -0.00075   0.00176   1.93406
   A10        1.95375  -0.00049  -0.01082  -0.00816  -0.02024   1.93352
   A11        2.01275  -0.00034  -0.01093  -0.00911  -0.02177   1.99099
   A12        2.01285  -0.00034  -0.01092  -0.00912  -0.02178   1.99107
   A13        1.80813   0.00015   0.00215   0.00205   0.00427   1.81240
   A14        1.99000   0.00003   0.00154  -0.00051   0.00100   1.99100
   A15        1.93228   0.00007   0.00255  -0.00074   0.00176   1.93405
   A16        1.99005   0.00003   0.00154  -0.00051   0.00100   1.99104
   A17        1.93237   0.00007   0.00255  -0.00075   0.00175   1.93412
   A18        1.81426  -0.00033  -0.00983   0.00033  -0.00950   1.80476
   A19        2.78091   0.00003  -0.00017   0.00072   0.00067   2.78158
   A20        2.78129   0.00003  -0.00016   0.00073   0.00068   2.78198
   A21        2.78089   0.00003  -0.00017   0.00072   0.00067   2.78156
   A22        2.78129   0.00003  -0.00016   0.00073   0.00068   2.78197
    D1        2.97635  -0.00066  -0.01831  -0.01345  -0.03100   2.94535
    D2        0.62897   0.00071   0.02358   0.01837   0.04121   0.67018
    D3       -0.62926  -0.00071  -0.02358  -0.01836  -0.04120  -0.67047
    D4       -2.97661   0.00066   0.01832   0.01346   0.03101  -2.94559
    D5        2.48890   0.00020   0.00186   0.02279   0.02468   2.51358
    D6       -1.75591  -0.00016  -0.00789   0.02236   0.01444  -1.74147
    D7        0.31614   0.00004  -0.00249   0.02228   0.01978   0.33592
    D8       -0.31583  -0.00004   0.00248  -0.02229  -0.01981  -0.33564
    D9       -2.48864  -0.00020  -0.00186  -0.02281  -0.02469  -2.51334
   D10        1.75626   0.00016   0.00788  -0.02238  -0.01447   1.74179
   D11        0.62891   0.00071   0.02358   0.01837   0.04122   0.67013
   D12        2.97629  -0.00066  -0.01831  -0.01344  -0.03099   2.94530
   D13       -0.62929  -0.00071  -0.02358  -0.01836  -0.04120  -0.67049
   D14       -2.97663   0.00066   0.01832   0.01345   0.03101  -2.94562
   D15       -0.31589  -0.00004   0.00249  -0.02229  -0.01980  -0.33569
   D16       -2.48871  -0.00020  -0.00186  -0.02280  -0.02469  -2.51340
   D17        1.75619   0.00016   0.00788  -0.02237  -0.01446   1.74173
   D18        0.31618   0.00004  -0.00249   0.02227   0.01978   0.33596
   D19        2.48897   0.00020   0.00185   0.02279   0.02466   2.51363
   D20       -1.75584  -0.00016  -0.00789   0.02235   0.01443  -1.74142
         Item               Value     Threshold  Converged?
 Maximum Force            0.000713     0.000015     NO 
 RMS     Force            0.000368     0.000010     NO 
 Maximum Displacement     0.042583     0.000060     NO 
 RMS     Displacement     0.014811     0.000040     NO 
 Predicted change in Energy=-1.555083D-04
 GradGradGradGradGradGradGradGradGradGradGradGradGradGradGradGradGradGrad

                          Input orientation:                          
 ---------------------------------------------------------------------
 Center     Atomic     Atomic              Coordinates (Angstroms)
 Number     Number      Type              X           Y           Z
 ---------------------------------------------------------------------
    1          8             0        0.004804   -1.885359   -0.201320
    2          8             0        1.879940    0.004420    0.105419
    3          8             0       -0.004805    1.885374   -0.201318
    4          8             0       -1.879940   -0.004436    0.105416
    5          1             0       -0.822969   -1.353627   -0.000847
    6          1             0        0.007101   -2.782782    0.189006
    7          1             0        0.829871   -1.349281   -0.000870
    8          1             0        2.449508    0.005799    0.899457
    9          1             0        2.520895    0.006006   -0.633408
   10          1             0        0.822971    1.353649   -0.000852
   11          1             0       -0.829865    1.349293   -0.000863
   12          1             0       -0.007105    2.782796    0.189011
   13          1             0       -2.449523   -0.005811    0.899444
   14          1             0       -2.520880   -0.006032   -0.633423
 ---------------------------------------------------------------------
                    Distance matrix (angstroms):
                    1          2          3          4          5
     1  O    0.000000
     2  O    2.679830   0.000000
     3  O    3.770745   2.680361   0.000000
     4  O    2.680338   3.759890   2.679851   0.000000
     5  H    1.004060   3.026764   3.346746   1.717206   0.000000
     6  H    0.978636   3.359019   4.684461   3.359631   1.663594
     7  H    1.004139   1.716523   3.346619   3.027041   1.652845
     8  H    3.280970   0.977193   3.281487   4.401673   3.656185
     9  H    3.177212   0.978105   3.177716   4.462434   3.664718
    10  H    3.346753   1.717235   1.004057   3.026783   3.168353
    11  H    3.346614   3.027049   1.004136   1.716547   2.702929
    12  H    4.684461   3.359658   0.978637   3.359042   4.220389
    13  H    3.281478   4.401685   3.280991   0.977193   2.296260
    14  H    3.177682   4.462423   3.177226   0.978105   2.258112
                    6          7          8          9         10
     6  H    0.000000
     7  H    1.663709   0.000000
     8  H    3.774424   2.295661   0.000000
     9  H    3.843548   2.257536   1.534526   0.000000
    10  H    4.220397   2.702939   2.296275   2.258144   0.000000
    11  H    4.220262   3.168127   3.656480   3.664987   1.652842
    12  H    5.565597   4.220267   3.775102   3.844180   1.663591
    13  H    3.775089   3.656487   4.899044   5.201425   3.656211
    14  H    3.844141   3.664966   5.201405   5.041789   3.664726
                   11         12         13         14
    11  H    0.000000
    12  H    1.663707   0.000000
    13  H    2.295680   3.774447   0.000000
    14  H    2.257558   3.843570   1.534527   0.000000
 Stoichiometry    H10O4(2+)
 Framework group  C1[X(H10O4)]
 Deg. of freedom    36
 Full point group                 C1
 Largest Abelian subgroup         C1      NOp   1
 Largest concise Abelian subgroup C1      NOp   1
                         Standard orientation:                         
 ---------------------------------------------------------------------
 Center     Atomic     Atomic              Coordinates (Angstroms)
 Number     Number      Type              X           Y           Z
 ---------------------------------------------------------------------
    1          8             0        0.006519   -1.885354   -0.186373
    2          8             0        1.879935    0.006130    0.120366
    3          8             0       -0.006520    1.885369   -0.186371
    4          8             0       -1.879935   -0.006146    0.120363
    5          1             0       -0.821737   -1.354375    0.014100
    6          1             0        0.009632   -2.782775    0.203953
    7          1             0        0.831098   -1.348526    0.014077
    8          1             0        2.449502    0.008027    0.914404
    9          1             0        2.520888    0.008299   -0.618461
   10          1             0        0.821740    1.354397    0.014095
   11          1             0       -0.831092    1.348538    0.014084
   12          1             0       -0.009636    2.782789    0.203958
   13          1             0       -2.449516   -0.008039    0.914391
   14          1             0       -2.520873   -0.008325   -0.618476
 ---------------------------------------------------------------------
 Rotational constants (GHZ):      3.5897290      3.4898019      1.8218478
 Standard basis: Aug-CC-pVDZ (5D, 7F)
 There are   182 symmetry adapted basis functions of A   symmetry.
 Integral buffers will be    131072 words long.
 Raffenetti 1 integral format.
 Two-electron integral symmetry is turned on.
   182 basis functions,   282 primitive gaussians,   190 cartesian basis functions
    20 alpha electrons       20 beta electrons
       nuclear repulsion energy       161.5174810289 Hartrees.
 NAtoms=   14 NActive=   14 NUniq=   14 SFac= 7.50D-01 NAtFMM=   80 NAOKFM=F Big=F
 One-electron integrals computed using PRISM.
 NBasis=   182 RedAO= T  NBF=   182
 NBsUse=   182 1.00D-06 NBFU=   182
 Initial guess read from the read-write file:
 Initial guess orbital symmetries:
       Occupied  (A) (A) (A) (A) (A) (A) (A) (A) (A) (A) (A) (A)
                 (A) (A) (A) (A) (A) (A) (A) (A)
       Virtual   (A) (A) (A) (A) (A) (A) (A) (A) (A) (A) (A) (A)
                 (A) (A) (A) (A) (A) (A) (A) (A) (A) (A) (A) (A)
                 (A) (A) (A) (A) (A) (A) (A) (A) (A) (A) (A) (A)
                 (A) (A) (A) (A) (A) (A) (A) (A) (A) (A) (A) (A)
                 (A) (A) (A) (A) (A) (A) (A) (A) (A) (A) (A) (A)
                 (A) (A) (A) (A) (A) (A) (A) (A) (A) (A) (A) (A)
                 (A) (A) (A) (A) (A) (A) (A) (A) (A) (A) (A) (A)
                 (A) (A) (A) (A) (A) (A) (A) (A) (A) (A) (A) (A)
                 (A) (A) (A) (A) (A) (A) (A) (A) (A) (A) (A) (A)
                 (A) (A) (A) (A) (A) (A) (A) (A) (A) (A) (A) (A)
                 (A) (A) (A) (A) (A) (A) (A) (A) (A) (A) (A) (A)
                 (A) (A) (A) (A) (A) (A) (A) (A) (A) (A) (A) (A)
                 (A) (A) (A) (A) (A) (A) (A) (A) (A) (A) (A) (A)
                 (A) (A) (A) (A) (A) (A)
 Harris functional with IExCor=  205 diagonalized for initial guess.
 ExpMin= 2.97D-02 ExpMax= 1.17D+04 ExpMxC= 4.01D+02 IAcc=3 IRadAn=         5 AccDes= 0.00D+00
 HarFok:  IExCor= 205 AccDes= 0.00D+00 IRadAn=         5 IDoV=1
 ScaDFX=  1.000000  1.000000  1.000000  1.000000
 Requested convergence on RMS density matrix=1.00D-08 within 128 cycles.
 Requested convergence on MAX density matrix=1.00D-06.
 Requested convergence on             energy=1.00D-06.
 No special actions if energy rises.
 Keep R1 integrals in memory in canonical form, NReq=   169079188.
 SCF Done:  E(RHF) =  -304.702107821     A.U. after    9 cycles
             Convg  =    0.4842D-08             -V/T =  2.0017
             S**2   =   0.0000
 ExpMin= 2.97D-02 ExpMax= 1.17D+04 ExpMxC= 4.01D+02 IAcc=3 IRadAn=         5 AccDes= 0.00D+00
 HarFok:  IExCor= 205 AccDes= 0.00D+00 IRadAn=         5 IDoV=1
 ScaDFX=  1.000000  1.000000  1.000000  1.000000
 Range of M.O.s used for correlation:     5   182
 NBasis=   182 NAE=    20 NBE=    20 NFC=     4 NFV=     0
 NROrb=    178 NOA=    16 NOB=    16 NVA=   162 NVB=   162
 Fully direct method using O(ONN) memory.
 JobTyp=1 Pass  1:  I=   5 to  20 NPSUse=  4 ParTrn=T ParDer=T DoDerP=T.
 Spin components of T(2) and E(2):
     alpha-alpha T2 =       0.2959578857D-01 E2=     -0.1123718832D+00
     alpha-beta  T2 =       0.1677989965D+00 E2=     -0.6582735359D+00
     beta-beta   T2 =       0.2959578857D-01 E2=     -0.1123718832D+00
 ANorm=    0.1107696066D+01
 E2 =    -0.8830173023D+00 EUMP2 =    -0.30558512512378D+03
 DoAtom=TTTTTTTTTTTTTT
          Differentiating once with respect to electric field.
                with respect to dipole field.
          Differentiating once with respect to nuclear coordinates.
          Store integrals in memory, NReq=   165451101.
          There are   1 degrees of freedom in the 1st order CPHF.
     1 vectors were produced by pass  0.
 AX will form   1 AO Fock derivatives at one time.
     1 vectors were produced by pass  1.
     1 vectors were produced by pass  2.
     1 vectors were produced by pass  3.
     1 vectors were produced by pass  4.
     1 vectors were produced by pass  5.
     1 vectors were produced by pass  6.
     1 vectors were produced by pass  7.
     1 vectors were produced by pass  8.
     1 vectors were produced by pass  9.
     1 vectors were produced by pass 10.
 Inv2:  IOpt= 1 Iter= 1 AM= 2.99D-16 Conv= 1.00D-12.
 Inverted reduced A of dimension   11 with in-core refinement.
 End of Minotr Frequency-dependent properties file   721 does not exist.
 ***** Axes restored to original set *****
 -------------------------------------------------------------------
 Center     Atomic                   Forces (Hartrees/Bohr)
 Number     Number              X              Y              Z
 -------------------------------------------------------------------
    1          8           0.000003242   -0.000605805   -0.001258353
    2          8           0.000869829    0.000005054    0.000051298
    3          8          -0.000002883    0.000606168   -0.001258395
    4          8          -0.000869717   -0.000004031    0.000051166
    5          1          -0.000457169    0.000205292    0.000526268
    6          1           0.000002374   -0.000619964    0.000297393
    7          1           0.000451590    0.000204179    0.000525178
    8          1          -0.000143616   -0.000000643    0.000313942
    9          1          -0.000237142   -0.000000744   -0.000455635
   10          1           0.000457221   -0.000205967    0.000526324
   11          1          -0.000452160   -0.000204720    0.000525065
   12          1          -0.000002355    0.000619952    0.000297335
   13          1           0.000143745    0.000000353    0.000314003
   14          1           0.000237041    0.000000875   -0.000455588
 -------------------------------------------------------------------
 Cartesian Forces:  Max     0.001258395 RMS     0.000468824

 GradGradGradGradGradGradGradGradGradGradGradGradGradGradGradGradGradGrad
 Berny optimization.
 Internal  Forces:  Max     0.000998645 RMS     0.000346077
 Search for a local minimum.
 Step number   3 out of a maximum of  66
 All quantities printed in internal units (Hartrees-Bohrs-Radians)
 Update second derivatives using D2CorX and points  1  2  3
 Trust test= 1.08D+00 RLast= 1.37D-01 DXMaxT set to 4.11D-01
     Eigenvalues ---    0.00230   0.00416   0.00487   0.00670   0.01132
     Eigenvalues ---    0.01850   0.03374   0.06200   0.07221   0.07272
     Eigenvalues ---    0.07623   0.07670   0.07904   0.09873   0.09886
     Eigenvalues ---    0.11141   0.11147   0.12038   0.12518   0.13385
     Eigenvalues ---    0.14091   0.16288   0.18211   0.19986   0.20282
     Eigenvalues ---    0.24169   0.44688   0.45038   0.46018   0.50071
     Eigenvalues ---    0.51632   0.51702   0.51725   0.51837   0.51853
     Eigenvalues ---    0.594151000.000001000.000001000.000001000.00000
     Eigenvalues --- 1000.000001000.000001000.000001000.000001000.00000
     Eigenvalues --- 1000.000001000.000001000.000001000.000001000.00000
     Eigenvalues --- 1000.000001000.000001000.000001000.000001000.00000
     Eigenvalues --- 1000.00000
 RFO step:  Lambda=-2.68845840D-05.
 Quartic linear search produced a step of  0.11252.
 Iteration  1 RMS(Cart)=  0.00501174 RMS(Int)=  0.00005619
 Iteration  2 RMS(Cart)=  0.00001907 RMS(Int)=  0.00005265
 Iteration  3 RMS(Cart)=  0.00000000 RMS(Int)=  0.00005265
 Variable       Old X    -DE/DX   Delta X   Delta X   Delta X     New X
                                 (Linear)    (Quad)   (Total)
    R1        1.89740   0.00100  -0.00012   0.00144   0.00132   1.89872
    R2        1.84935   0.00069   0.00018   0.00103   0.00121   1.85056
    R3        1.89755   0.00100  -0.00012   0.00144   0.00131   1.89886
    R4        3.24376   0.00047   0.00102   0.00581   0.00683   3.25059
    R5        1.84663   0.00017   0.00007   0.00011   0.00018   1.84681
    R6        1.84835   0.00019   0.00010   0.00012   0.00023   1.84858
    R7        3.24510   0.00047   0.00101   0.00578   0.00679   3.25189
    R8        1.89739   0.00100  -0.00012   0.00144   0.00132   1.89871
    R9        1.89754   0.00100  -0.00012   0.00144   0.00131   1.89886
   R10        1.84936   0.00069   0.00018   0.00103   0.00121   1.85056
   R11        3.24505   0.00047   0.00101   0.00578   0.00680   3.25184
   R12        3.24380   0.00047   0.00102   0.00581   0.00682   3.25063
   R13        1.84663   0.00017   0.00007   0.00011   0.00018   1.84681
   R14        1.84835   0.00019   0.00010   0.00012   0.00023   1.84858
    A1        1.99099   0.00002  -0.00245  -0.00086  -0.00346   1.98753
    A2        1.93352  -0.00018  -0.00228  -0.00183  -0.00421   1.92931
    A3        1.99108   0.00002  -0.00245  -0.00087  -0.00347   1.98761
    A4        1.99105  -0.00010   0.00011  -0.00029  -0.00018   1.99087
    A5        1.93412  -0.00020   0.00020  -0.00140  -0.00121   1.93291
    A6        1.81240   0.00022   0.00048   0.00106   0.00155   1.81395
    A7        1.80476   0.00034  -0.00107   0.00209   0.00102   1.80578
    A8        1.99098  -0.00010   0.00011  -0.00028  -0.00018   1.99081
    A9        1.93406  -0.00020   0.00020  -0.00140  -0.00121   1.93285
   A10        1.93352  -0.00018  -0.00228  -0.00183  -0.00421   1.92931
   A11        1.99099   0.00002  -0.00245  -0.00086  -0.00346   1.98753
   A12        1.99107   0.00002  -0.00245  -0.00087  -0.00347   1.98761
   A13        1.81240   0.00022   0.00048   0.00106   0.00155   1.81395
   A14        1.99100  -0.00010   0.00011  -0.00029  -0.00018   1.99082
   A15        1.93405  -0.00020   0.00020  -0.00140  -0.00120   1.93284
   A16        1.99104  -0.00010   0.00011  -0.00029  -0.00018   1.99086
   A17        1.93412  -0.00020   0.00020  -0.00140  -0.00121   1.93291
   A18        1.80476   0.00034  -0.00107   0.00209   0.00102   1.80578
   A19        2.78158  -0.00005   0.00007  -0.00012  -0.00003   2.78154
   A20        2.78198  -0.00005   0.00008  -0.00012  -0.00003   2.78195
   A21        2.78156  -0.00005   0.00008  -0.00012  -0.00003   2.78153
   A22        2.78197  -0.00005   0.00008  -0.00012  -0.00003   2.78195
    D1        2.94535  -0.00003  -0.00349   0.00121  -0.00221   2.94314
    D2        0.67018   0.00008   0.00464   0.00483   0.00941   0.67958
    D3       -0.67047  -0.00008  -0.00464  -0.00483  -0.00940  -0.67986
    D4       -2.94559   0.00003   0.00349  -0.00120   0.00222  -2.94338
    D5        2.51358  -0.00006   0.00278   0.00875   0.01153   2.52511
    D6       -1.74147   0.00018   0.00163   0.01026   0.01188  -1.72959
    D7        0.33592  -0.00003   0.00223   0.00852   0.01075   0.34667
    D8       -0.33564   0.00003  -0.00223  -0.00854  -0.01077  -0.34640
    D9       -2.51334   0.00006  -0.00278  -0.00876  -0.01154  -2.52488
   D10        1.74179  -0.00018  -0.00163  -0.01028  -0.01190   1.72989
   D11        0.67013   0.00008   0.00464   0.00484   0.00941   0.67954
   D12        2.94530  -0.00003  -0.00349   0.00121  -0.00220   2.94310
   D13       -0.67049  -0.00008  -0.00464  -0.00482  -0.00939  -0.67989
   D14       -2.94562   0.00003   0.00349  -0.00120   0.00222  -2.94340
   D15       -0.33569   0.00003  -0.00223  -0.00853  -0.01076  -0.34645
   D16       -2.51340   0.00006  -0.00278  -0.00875  -0.01153  -2.52493
   D17        1.74173  -0.00018  -0.00163  -0.01027  -0.01189   1.72984
   D18        0.33596  -0.00003   0.00223   0.00852   0.01074   0.34670
   D19        2.51363  -0.00006   0.00278   0.00874   0.01152   2.52515
   D20       -1.74142   0.00018   0.00162   0.01025   0.01187  -1.72954
         Item               Value     Threshold  Converged?
 Maximum Force            0.000999     0.000015     NO 
 RMS     Force            0.000346     0.000010     NO 
 Maximum Displacement     0.016604     0.000060     NO 
 RMS     Displacement     0.005009     0.000040     NO 
 Predicted change in Energy=-1.628146D-05
 GradGradGradGradGradGradGradGradGradGradGradGradGradGradGradGradGradGrad

                          Input orientation:                          
 ---------------------------------------------------------------------
 Center     Atomic     Atomic              Coordinates (Angstroms)
 Number     Number      Type              X           Y           Z
 ---------------------------------------------------------------------
    1          8             0        0.004811   -1.890802   -0.201742
    2          8             0        1.880763    0.004430    0.103562
    3          8             0       -0.004812    1.890815   -0.201740
    4          8             0       -1.880762   -0.004443    0.103558
    5          1             0       -0.822337   -1.357286    0.000059
    6          1             0        0.007109   -2.784863    0.197792
    7          1             0        0.829242   -1.352942    0.000027
    8          1             0        2.452965    0.005809    0.895824
    9          1             0        2.518634    0.006009   -0.638085
   10          1             0        0.822340    1.357305    0.000056
   11          1             0       -0.829237    1.352952    0.000033
   12          1             0       -0.007112    2.784875    0.197796
   13          1             0       -2.452977   -0.005821    0.895811
   14          1             0       -2.518621   -0.006029   -0.638100
 ---------------------------------------------------------------------
                    Distance matrix (angstroms):
                    1          2          3          4          5
     1  O    0.000000
     2  O    2.684084   0.000000
     3  O    3.781629   2.684595   0.000000
     4  O    2.684575   3.761536   2.684101   0.000000
     5  H    1.004758   3.028487   3.355477   1.720802   0.000000
     6  H    0.979275   3.361490   4.692731   3.362093   1.662846
     7  H    1.004833   1.720138   3.355341   3.028744   1.651585
     8  H    3.285611   0.977290   3.286116   4.405563   3.658965
     9  H    3.179243   0.978224   3.179728   4.461483   3.664408
    10  H    3.355484   1.720827   1.004756   3.028503   3.173951
    11  H    3.355338   3.028751   1.004831   1.720158   2.710247
    12  H    4.692732   3.362117   0.979275   3.361509   4.226250
    13  H    3.286107   4.405572   3.285629   0.977290   2.299525
    14  H    3.179699   4.461474   3.179255   0.978224   2.260646
                    6          7          8          9         10
     6  H    0.000000
     7  H    1.662953   0.000000
     8  H    3.775886   2.298942   0.000000
     9  H    3.846481   2.260084   1.535315   0.000000
    10  H    4.226258   2.710256   2.299539   2.260673   0.000000
    11  H    4.226121   3.173707   3.659247   3.664655   1.651583
    12  H    5.569756   4.226125   3.776563   3.847102   1.662843
    13  H    3.776549   3.659252   4.905955   5.202873   3.658987
    14  H    3.847070   3.664638   5.202858   5.037269   3.664416
                   11         12         13         14
    11  H    0.000000
    12  H    1.662950   0.000000
    13  H    2.298959   3.775906   0.000000
    14  H    2.260102   3.846498   1.535315   0.000000
 Stoichiometry    H10O4(2+)
 Framework group  C1[X(H10O4)]
 Deg. of freedom    36
 Full point group                 C1
 Largest Abelian subgroup         C1      NOp   1
 Largest concise Abelian subgroup C1      NOp   1
                         Standard orientation:                         
 ---------------------------------------------------------------------
 Center     Atomic     Atomic              Coordinates (Angstroms)
 Number     Number      Type              X           Y           Z
 ---------------------------------------------------------------------
    1          8             0        0.006870   -1.890796   -0.186035
    2          8             0        1.880757    0.006478    0.119269
    3          8             0       -0.006871    1.890808   -0.186033
    4          8             0       -1.880757   -0.006491    0.119264
    5          1             0       -0.820859   -1.358181    0.015766
    6          1             0        0.010141   -2.784854    0.213499
    7          1             0        0.830715   -1.352038    0.015734
    8          1             0        2.452957    0.008481    0.911531
    9          1             0        2.518626    0.008751   -0.622379
   10          1             0        0.820861    1.358200    0.015763
   11          1             0       -0.830710    1.352048    0.015740
   12          1             0       -0.010145    2.784866    0.213503
   13          1             0       -2.452969   -0.008492    0.911517
   14          1             0       -2.518613   -0.008772   -0.622393
 ---------------------------------------------------------------------
 Rotational constants (GHZ):      3.5715822      3.4873775      1.8164349
 Standard basis: Aug-CC-pVDZ (5D, 7F)
 There are   182 symmetry adapted basis functions of A   symmetry.
 Integral buffers will be    131072 words long.
 Raffenetti 1 integral format.
 Two-electron integral symmetry is turned on.
   182 basis functions,   282 primitive gaussians,   190 cartesian basis functions
    20 alpha electrons       20 beta electrons
       nuclear repulsion energy       161.3275081235 Hartrees.
 NAtoms=   14 NActive=   14 NUniq=   14 SFac= 7.50D-01 NAtFMM=   80 NAOKFM=F Big=F
 One-electron integrals computed using PRISM.
 NBasis=   182 RedAO= T  NBF=   182
 NBsUse=   182 1.00D-06 NBFU=   182
 Initial guess read from the read-write file:
 Initial guess orbital symmetries:
       Occupied  (A) (A) (A) (A) (A) (A) (A) (A) (A) (A) (A) (A)
                 (A) (A) (A) (A) (A) (A) (A) (A)
       Virtual   (A) (A) (A) (A) (A) (A) (A) (A) (A) (A) (A) (A)
                 (A) (A) (A) (A) (A) (A) (A) (A) (A) (A) (A) (A)
                 (A) (A) (A) (A) (A) (A) (A) (A) (A) (A) (A) (A)
                 (A) (A) (A) (A) (A) (A) (A) (A) (A) (A) (A) (A)
                 (A) (A) (A) (A) (A) (A) (A) (A) (A) (A) (A) (A)
                 (A) (A) (A) (A) (A) (A) (A) (A) (A) (A) (A) (A)
                 (A) (A) (A) (A) (A) (A) (A) (A) (A) (A) (A) (A)
                 (A) (A) (A) (A) (A) (A) (A) (A) (A) (A) (A) (A)
                 (A) (A) (A) (A) (A) (A) (A) (A) (A) (A) (A) (A)
                 (A) (A) (A) (A) (A) (A) (A) (A) (A) (A) (A) (A)
                 (A) (A) (A) (A) (A) (A) (A) (A) (A) (A) (A) (A)
                 (A) (A) (A) (A) (A) (A) (A) (A) (A) (A) (A) (A)
                 (A) (A) (A) (A) (A) (A) (A) (A) (A) (A) (A) (A)
                 (A) (A) (A) (A) (A) (A)
 Requested convergence on RMS density matrix=1.00D-08 within 128 cycles.
 Requested convergence on MAX density matrix=1.00D-06.
 Requested convergence on             energy=1.00D-06.
 No special actions if energy rises.
 Keep R1 integrals in memory in canonical form, NReq=   169079188.
 SCF Done:  E(RHF) =  -304.701983921     A.U. after    8 cycles
             Convg  =    0.5289D-08             -V/T =  2.0017
             S**2   =   0.0000
 ExpMin= 2.97D-02 ExpMax= 1.17D+04 ExpMxC= 4.01D+02 IAcc=3 IRadAn=         5 AccDes= 0.00D+00
 HarFok:  IExCor= 205 AccDes= 0.00D+00 IRadAn=         5 IDoV=1
 ScaDFX=  1.000000  1.000000  1.000000  1.000000
 Range of M.O.s used for correlation:     5   182
 NBasis=   182 NAE=    20 NBE=    20 NFC=     4 NFV=     0
 NROrb=    178 NOA=    16 NOB=    16 NVA=   162 NVB=   162
 Fully direct method using O(ONN) memory.
 JobTyp=1 Pass  1:  I=   5 to  20 NPSUse=  4 ParTrn=T ParDer=T DoDerP=T.
 Spin components of T(2) and E(2):
     alpha-alpha T2 =       0.2961165657D-01 E2=     -0.1123735690D+00
     alpha-beta  T2 =       0.1679384610D+00 E2=     -0.6584176018D+00
     beta-beta   T2 =       0.2961165657D-01 E2=     -0.1123735690D+00
 ANorm=    0.1107773341D+01
 E2 =    -0.8831647398D+00 EUMP2 =    -0.30558514866077D+03
 DoAtom=TTTTTTTTTTTTTT
          Differentiating once with respect to electric field.
                with respect to dipole field.
          Differentiating once with respect to nuclear coordinates.
          Store integrals in memory, NReq=   165451101.
          There are   1 degrees of freedom in the 1st order CPHF.
     1 vectors were produced by pass  0.
 AX will form   1 AO Fock derivatives at one time.
     1 vectors were produced by pass  1.
     1 vectors were produced by pass  2.
     1 vectors were produced by pass  3.
     1 vectors were produced by pass  4.
     1 vectors were produced by pass  5.
     1 vectors were produced by pass  6.
     1 vectors were produced by pass  7.
     1 vectors were produced by pass  8.
     1 vectors were produced by pass  9.
     1 vectors were produced by pass 10.
 Inv2:  IOpt= 1 Iter= 1 AM= 3.07D-16 Conv= 1.00D-12.
 Inverted reduced A of dimension   11 with in-core refinement.
 End of Minotr Frequency-dependent properties file   721 does not exist.
 ***** Axes restored to original set *****
 -------------------------------------------------------------------
 Center     Atomic                   Forces (Hartrees/Bohr)
 Number     Number              X              Y              Z
 -------------------------------------------------------------------
    1          8           0.000001944   -0.000212966   -0.000517779
    2          8           0.000656884    0.000004056    0.000023251
    3          8          -0.000001705    0.000213384   -0.000517820
    4          8          -0.000656793   -0.000003213    0.000023179
    5          1          -0.000123559   -0.000046187    0.000291797
    6          1           0.000001109   -0.000260089    0.000029991
    7          1           0.000120347   -0.000048337    0.000290975
    8          1          -0.000149186   -0.000000580    0.000139845
    9          1          -0.000260409   -0.000000764   -0.000258032
   10          1           0.000123569    0.000045535    0.000291894
   11          1          -0.000120726    0.000047867    0.000290866
   12          1          -0.000001094    0.000260080    0.000029934
   13          1           0.000149279    0.000000364    0.000139894
   14          1           0.000260340    0.000000851   -0.000257994
 -------------------------------------------------------------------
 Cartesian Forces:  Max     0.000656884 RMS     0.000238479

 GradGradGradGradGradGradGradGradGradGradGradGradGradGradGradGradGradGrad
 Berny optimization.
 Internal  Forces:  Max     0.000378147 RMS     0.000166469
 Search for a local minimum.
 Step number   4 out of a maximum of  66
 All quantities printed in internal units (Hartrees-Bohrs-Radians)
 Update second derivatives using D2CorX and points  1  2  3  4
 Trust test= 1.45D+00 RLast= 4.72D-02 DXMaxT set to 4.11D-01
     Eigenvalues ---    0.00190   0.00416   0.00487   0.00672   0.01070
     Eigenvalues ---    0.02218   0.03446   0.05578   0.06184   0.07221
[...]
 -------------------------------------------------------------------
 Cartesian Forces:  Max     0.000000999 RMS     0.000000381

 GradGradGradGradGradGradGradGradGradGradGradGradGradGradGradGradGradGrad
 Berny optimization.
 Internal  Forces:  Max     0.000000481 RMS     0.000000208
 Search for a local minimum.
 Step number   1 out of a maximum of   2
 All quantities printed in internal units (Hartrees-Bohrs-Radians)
 Second derivative matrix not updated -- analytic derivatives used.
     Eigenvalues ---    0.00056   0.00059   0.00065   0.00093   0.00126
     Eigenvalues ---    0.00312   0.00880   0.01093   0.01378   0.01430
     Eigenvalues ---    0.01680   0.01957   0.02315   0.02570   0.02599
     Eigenvalues ---    0.02638   0.02743   0.02827   0.02864   0.02897
     Eigenvalues ---    0.06893   0.07738   0.07804   0.09427   0.09948
     Eigenvalues ---    0.09951   0.38516   0.38542   0.39898   0.40979
     Eigenvalues ---    0.48372   0.48420   0.48967   0.49052   0.49722
     Eigenvalues ---    0.497401000.000001000.000001000.000001000.00000
     Eigenvalues --- 1000.000001000.000001000.000001000.000001000.00000
     Eigenvalues --- 1000.000001000.000001000.000001000.000001000.00000
     Eigenvalues --- 1000.000001000.000001000.000001000.000001000.00000
     Eigenvalues --- 1000.00000
 Angle between quadratic step and forces=  54.78 degrees.
 Linear search not attempted -- first point.
 Iteration  1 RMS(Cart)=  0.00012149 RMS(Int)=  0.00000002
 Iteration  2 RMS(Cart)=  0.00000001 RMS(Int)=  0.00000000
 Variable       Old X    -DE/DX   Delta X   Delta X   Delta X     New X
                                 (Linear)    (Quad)   (Total)
    R1        1.89860   0.00000   0.00000   0.00004   0.00004   1.89864
    R2        1.85131   0.00000   0.00000   0.00000   0.00000   1.85131
    R3        1.89868   0.00000   0.00000  -0.00004  -0.00004   1.89864
    R4        3.26746   0.00000   0.00000   0.00037   0.00037   3.26783
    R5        1.84662   0.00000   0.00000   0.00000   0.00000   1.84662
    R6        1.84830   0.00000   0.00000   0.00000   0.00000   1.84830
    R7        3.26822   0.00000   0.00000  -0.00039  -0.00039   3.26783
    R8        1.89860   0.00000   0.00000   0.00004   0.00004   1.89864
    R9        1.89868   0.00000   0.00000  -0.00004  -0.00004   1.89864
   R10        1.85131   0.00000   0.00000   0.00000   0.00000   1.85131
   R11        3.26822   0.00000   0.00000  -0.00039  -0.00039   3.26783
   R12        3.26746   0.00000   0.00000   0.00037   0.00037   3.26783
   R13        1.84662   0.00000   0.00000   0.00000   0.00000   1.84662
   R14        1.84830   0.00000   0.00000   0.00000   0.00000   1.84830
    A1        1.98662   0.00000   0.00000   0.00002   0.00002   1.98665
    A2        1.92616   0.00000   0.00000   0.00000   0.00000   1.92615
    A3        1.98667   0.00000   0.00000  -0.00002  -0.00002   1.98665
    A4        1.99043   0.00000   0.00000  -0.00001  -0.00001   1.99042
    A5        1.92580   0.00000   0.00000  -0.00003  -0.00003   1.92578
    A6        1.82506   0.00000   0.00000   0.00001   0.00001   1.82506
    A7        1.80850   0.00000   0.00000   0.00000   0.00000   1.80850
    A8        1.99040   0.00000   0.00000   0.00002   0.00002   1.99042
    A9        1.92576   0.00000   0.00000   0.00001   0.00001   1.92578
   A10        1.92616   0.00000   0.00000   0.00000   0.00000   1.92615
   A11        1.98662   0.00000   0.00000   0.00002   0.00002   1.98665
   A12        1.98667   0.00000   0.00000  -0.00002  -0.00002   1.98665
   A13        1.82506   0.00000   0.00000   0.00001   0.00001   1.82506
   A14        1.99040   0.00000   0.00000   0.00002   0.00002   1.99042
   A15        1.92576   0.00000   0.00000   0.00001   0.00001   1.92578
   A16        1.99043   0.00000   0.00000  -0.00001  -0.00001   1.99042
   A17        1.92580   0.00000   0.00000  -0.00003  -0.00003   1.92578
   A18        1.80850   0.00000   0.00000   0.00000   0.00000   1.80850
   A19        2.77065   0.00000   0.00000   0.00015   0.00015   2.77079
   A20        2.77096   0.00000   0.00000  -0.00016  -0.00016   2.77079
   A21        2.77065   0.00000   0.00000   0.00015   0.00015   2.77079
   A22        2.77096   0.00000   0.00000  -0.00016  -0.00016   2.77079
    D1        2.97750   0.00000   0.00000   0.00011   0.00011   2.97762
    D2        0.71879   0.00000   0.00000   0.00013   0.00013   0.71892
    D3       -0.71897   0.00000   0.00000   0.00004   0.00004  -0.71892
    D4       -2.97765   0.00000   0.00000   0.00003   0.00003  -2.97762
    D5        2.57068   0.00000   0.00000   0.00002   0.00002   2.57070
    D6       -1.68569   0.00000   0.00000  -0.00001  -0.00001  -1.68570
    D7        0.38499   0.00000   0.00000   0.00000   0.00000   0.38499
    D8       -0.38487   0.00000   0.00000  -0.00012  -0.00012  -0.38499
    D9       -2.57057   0.00000   0.00000  -0.00012  -0.00012  -2.57070
   D10        1.68584   0.00000   0.00000  -0.00014  -0.00014   1.68570
   D11        0.71879   0.00000   0.00000   0.00013   0.00013   0.71892
   D12        2.97750   0.00000   0.00000   0.00011   0.00011   2.97762
   D13       -0.71897   0.00000   0.00000   0.00005   0.00005  -0.71892
   D14       -2.97765   0.00000   0.00000   0.00003   0.00003  -2.97762
   D15       -0.38487   0.00000   0.00000  -0.00012  -0.00012  -0.38499
   D16       -2.57057   0.00000   0.00000  -0.00012  -0.00012  -2.57070
   D17        1.68584   0.00000   0.00000  -0.00014  -0.00014   1.68570
   D18        0.38499   0.00000   0.00000   0.00000   0.00000   0.38499
   D19        2.57068   0.00000   0.00000   0.00002   0.00002   2.57070
   D20       -1.68569   0.00000   0.00000  -0.00001  -0.00001  -1.68570
         Item               Value     Threshold  Converged?
 Maximum Force            0.000000     0.000015     YES
 RMS     Force            0.000000     0.000010     YES
 Maximum Displacement     0.000307     0.000060     NO 
 RMS     Displacement     0.000121     0.000040     NO 
 Predicted change in Energy=-4.149450D-10
 GradGradGradGradGradGradGradGradGradGradGradGradGradGradGradGradGradGrad

 1\1\GINC-NODE83\Freq\RMP2-FC\Aug-CC-pVDZ\H10O4(2+)\CHINH\18-May-2010\0
 \\#N Geom=AllCheck Guess=Read SCRF=Check GenChk RMP2(FC)/Aug-CC-pVDZ F
 req\\Str 5\\2,1\O,0.0047758722,-1.9022879609,-0.197428125\O,1.87873737
 49,0.0045145238,0.1027674737\O,-0.0047739612,1.9022895465,-0.197426092
 5\O,-1.8787369099,-0.0045133373,0.1027582367\H,-0.8213946713,-1.370067
 0498,0.0113612823\H,0.0070716888,-2.7998167756,0.195248413\H,0.8282489
 256,-1.3658043318,0.0113180594\H,2.4640897299,0.0059232573,0.885235335
 4\H,2.5019315587,0.0060608619,-0.6510639934\H,0.8213956287,1.370068497
 7,0.0113666924\H,-0.8282479906,1.365805634,0.0113155021\H,-0.007071748
 ,2.799817937,0.1952514033\H,-2.4640931815,-0.0059228928,0.8852231672\H
 ,-2.5019273162,-0.0060589099,-0.6510763546\\Version=AM64L-G03RevD.01\S
 tate=1-A\HF=-304.7021454\MP2=-305.5851765\RMSD=2.508e-09\RMSF=3.806e-0
 7\ZeroPoint=0.1241214\Thermal=0.1333853\Dipole=-0.000002,-0.0000003,0.
 8087994\DipoleDeriv=-0.7439119,-0.0002489,0.0000123,-0.0002516,-0.7061
 54,-0.0149722,0.0000941,-0.053611,-0.2821273,-0.7253863,0.0001562,-0.0
 199858,0.000149,-0.8369265,-0.0000658,-0.0160113,-0.0000562,-0.4856028
 ,-0.7439118,-0.0002492,-0.0000146,-0.0002517,-0.706154,0.0149718,-0.00
 00963,0.0536105,-0.2821272,-0.7253865,0.0001563,0.0199846,0.000149,-0.
 8369265,0.0000654,0.0160101,0.0000558,-0.4856026,0.7507882,-0.4320642,
 -0.0174159,-0.4116125,0.6426924,0.0306587,-0.0355119,0.0529078,0.30005
 13,0.3004036,-0.0007787,0.0000376,-0.0007724,0.6065895,-0.0145421,0.00
 00951,-0.0372004,0.3969829,0.7469017,0.4328839,0.0173058,0.4124411,0.6
 471124,0.0307816,0.0353054,0.0531298,0.3000183,0.3293649,0.0000114,0.0
 473726,0.0000078,0.3222783,0.000124,0.0903769,0.0002343,0.3895246,0.34
 18398,0.0000402,-0.0543075,0.0000385,0.3244078,-0.0001444,-0.0933391,-
 0.0002446,0.3811528,0.7507879,-0.4320638,0.0174176,-0.4116123,0.642692
 4,-0.0306603,0.0355137,-0.0529096,0.3000515,0.7469019,0.4328842,-0.017
 3032,0.4124413,0.6471125,-0.0307792,-0.0353027,-0.0531273,0.300018,0.3
 004036,-0.0007789,-0.0000381,-0.0007725,0.6065894,0.0145424,-0.0000955
 ,0.0372006,0.396983,0.3293656,0.0000115,-0.047373,0.0000079,0.3222783,
 -0.0001241,-0.0903772,-0.0002344,0.3895239,0.3418391,0.0000401,0.05430
 73,0.0000384,0.3244078,0.0001443,0.0933389,0.0002446,0.3811536\Polar=3
 6.1059394,0.0026386,35.569144,0.0000235,0.0000049,26.516435\PG=C01 [X(
 H10O4)]\NImag=0\\0.63676042,-0.00028612,0.73061354,0.00021712,-0.10071
 707,0.14922893,-0.01178878,-0.01593515,-0.00107222,0.45987553,-0.01994
 401,-0.01007174,-0.00068372,0.00100637,0.05580785,-0.00133921,-0.00229
 014,0.00505328,-0.00085716,-0.00001830,0.64551320,0.00484819,0.0000154
 9,0.00000038,-0.01194680,0.01991540,-0.00134792,0.63676046,0.00001549,
 -0.00115556,-0.00008288,0.01590627,-0.00988274,0.00228083,-0.00028662,
 0.73061333,-0.00000035,0.00008288,0.00018754,-0.00107325,0.00067646,0.
 00504839,-0.00021477,0.10071770,0.14922912,-0.01194682,0.01590628,0.00
 107318,-0.00121671,-0.00001339,-0.00014660,-0.01178878,-0.01593516,0.0
 0107212,0.45987552,0.01991540,-0.00988274,-0.00067638,-0.00001339,0.00
 456518,-0.00000026,-0.01994401,-0.01007174,0.00068361,0.00100637,0.055
 80785,0.00134786,-0.00228077,0.00504840,0.00014659,0.00000027,0.000724
 83,0.00133911,0.00229004,0.00505330,0.00085623,0.00001770,0.64551321,-
 0.26868251,0.12225703,0.05697148,0.00173993,0.00407037,-0.00023165,-0.
 00539299,-0.00114162,0.00020525,0.00087118,-0.01989726,-0.00169673,0.2
 7506744,0.11792330,-0.15339190,-0.02553229,-0.00116360,-0.00649092,-0.
 00039205,0.00422021,0.00152912,-0.00005554,-0.00877871,0.00420512,0.00
 161039,-0.11643944,0.13662775,0.08736861,-0.04376165,-0.03550777,-0.00
 001628,-0.00088814,-0.00081548,0.00047142,0.00011357,-0.00036508,-0.00
 149300,0.00200473,-0.01538866,-0.05994605,0.02891094,0.04680602,-0.074
 04051,0.00081677,-0.00039124,-0.00270255,-0.00150334,-0.00101086,0.000
 01777,-0.00000143,0.00000010,-0.00270126,0.00147969,0.00101056,0.01168
 677,0.02272938,-0.01702811,0.05635252,0.00082599,-0.39491365,0.1546486
 4,0.00116954,0.00183158,-0.00013843,-0.00000135,0.00059017,-0.00004344
 ,-0.00119135,0.00183240,-0.00013320,-0.00099457,-0.01009450,0.00692790
 ,-0.00091526,0.41310596,-0.00049307,0.19305457,-0.08575021,-0.00148513
 ,-0.00126757,-0.00025779,0.00000031,-0.00014775,-0.00006501,0.00149020
 ,-0.00125970,-0.00025767,-0.00340568,-0.01089919,0.00100714,0.00042860
 ,-0.16847151,0.08318176,-0.26734350,-0.12276766,-0.05680132,0.00073578
 ,0.01989192,0.00169215,-0.00537897,0.00110600,-0.00020467,0.00175276,-
 0.00403190,0.00023312,-0.02093321,-0.00963858,-0.00827335,0.01180337,0
 .00110301,0.00346472,0.27375112,-0.11844139,-0.15458619,-0.02580440,0.
 00876792,0.00433940,0.00162154,-0.00425551,0.00151249,-0.00005617,0.00
 120135,-0.00650428,-0.00039015,0.00940958,0.02508317,0.00619097,-0.022
 60926,-0.01020483,-0.01087755,0.11705276,0.13778860,-0.08710060,-0.044
 18514,-0.03550210,0.00148564,0.00201454,-0.01540354,-0.00047220,0.0001
 1117,-0.00036513,0.00002024,-0.00088746,-0.00081563,0.00824406,0.00623
 410,-0.00045055,0.01699142,0.00701284,0.00100562,0.05974983,0.02919199
 ,0.04681542,0.00068721,-0.00062665,0.00076407,-0.20786216,-0.00045839,
 -0.23147254,0.00067680,0.00064250,0.00076734,0.00022635,0.00000117,0.0
 0020979,-0.00023583,0.00022233,-0.00024862,-0.00019991,-0.00043240,-0.
 00018302,-0.00239537,0.00048206,-0.00299330,0.19847070,-0.00151393,-0.
 00277619,0.00074625,-0.00045756,-0.01930799,-0.00055348,0.00152847,-0.
 00276320,-0.00074214,0.00000105,-0.00023091,0.00000049,-0.00035454,0.0
 0026802,0.00000264,-0.00089358,-0.00011200,-0.00038296,-0.00011273,0.0
 0376225,-0.00467304,0.00044370,0.01563820,0.00284539,0.00236766,-0.000
 09685,-0.17893188,-0.00042745,-0.32257608,0.00285502,-0.00235153,-0.00
 009711,0.00042173,0.00000105,-0.00028056,-0.00059238,0.00031443,0.0002
 8922,0.00031107,-0.00027360,0.00045650,-0.00429274,-0.00442419,0.00054
 093,0.20845557,0.00049977,0.34788189,0.00079526,-0.00026231,-0.0004185
 8,-0.22726066,-0.00051836,0.23427304,0.00078843,0.00027688,-0.00042519
 ,0.00027738,0.00000172,-0.00019742,-0.00023403,0.00037403,0.00025431,0
 .00005347,-0.00044953,-0.00013840,-0.00316544,-0.00027354,0.00304966,0
 .01373785,0.00003111,-0.02638455,0.21861254,-0.00116539,-0.00235657,-0
 .00139927,-0.00051423,-0.01971248,0.00057742,0.00117884,-0.00234760,0.
 00139619,0.00000150,-0.00038050,-0.00000043,-0.00027777,0.00053748,0.0
 0007735,-0.00037771,0.00001880,0.00005950,-0.00154622,0.00300413,0.005
 48770,0.00002949,0.00151425,-0.00006339,0.00050431,0.01607618,-0.00277
 343,-0.00228041,-0.00088477,0.18186366,0.00045174,-0.30032674,-0.00278
 229,0.00226447,-0.00088411,-0.00037912,-0.00000089,-0.00021755,0.00058
 275,-0.00021145,0.00023566,-0.00017554,0.00035218,-0.00000470,0.004081
 82,0.00433244,0.00214747,0.02827000,0.00006976,-0.02764882,-0.21330808
 ,-0.00053048,0.32499305,-0.00539299,-0.00114162,-0.00020528,0.00087116
 ,-0.01989725,0.00169680,-0.26868187,0.12225688,-0.05697248,0.00173992,
 0.00407037,0.00023167,0.00313314,-0.00393362,-0.00030790,-0.00005809,0
 .00030668,-0.00008540,0.00860285,0.00539463,0.00073553,-0.00239222,0.0
 0008434,-0.00431099,-0.00317242,0.00151619,0.00409981,0.27506692,0.004
 22021,0.00152912,0.00005556,-0.00877870,0.00420513,-0.00161041,0.11792
 328,-0.15339197,0.02553272,-0.00116361,-0.00649092,0.00039204,-0.00393
 362,0.00239070,0.00021672,0.00006955,-0.00077798,0.00023254,-0.0053197
 7,-0.00665334,-0.00056084,-0.00050981,0.00375649,0.00439964,0.00024474
 ,0.00301079,-0.00430878,-0.11643937,0.13662779,-0.00047144,-0.00011357
 ,-0.00036509,0.00149307,-0.00200481,-0.01538864,-0.08736960,0.04376210
 ,-0.03550838,0.00001629,0.00088815,-0.00081548,0.00030790,-0.00021674,
 0.00051970,-0.00001140,0.00004446,0.00007967,0.00073255,0.00056404,0.0
 0090327,-0.00301398,0.00465495,0.00054122,0.00307387,-0.00546838,0.002
 14564,0.05994702,-0.02891140,0.04680652,-0.00537897,0.00110600,0.00020
 464,0.00175276,-0.00403191,-0.00023311,-0.26734419,-0.12276795,0.05680
 006,0.00073580,0.01989193,-0.00169205,0.00860286,-0.00531977,-0.000732
 52,-0.00005634,-0.00030325,0.00008435,0.00309734,0.00394018,0.00030710
 ,-0.00023655,0.00035206,-0.00059095,-0.00023384,0.00027417,0.00058164,
 -0.02093320,-0.00963856,0.00827323,0.27375168,-0.00425552,0.00151249,0
 .00005615,0.00120134,-0.00650428,0.00039015,-0.11844163,-0.15458629,0.
 02580370,0.00876793,0.00433941,-0.00162147,0.00539464,-0.00665334,-0.0
 0056402,-0.00006593,-0.00077997,0.00023303,0.00394019,0.00243216,0.000
 21862,-0.00022493,0.00026908,-0.00031727,-0.00037792,0.00053731,0.0002
 1415,0.00940962,0.02508318,-0.00619090,0.11705298,0.13778869,0.0004721
 7,-0.00011117,-0.00036513,-0.00002023,0.00088743,-0.00081563,0.0870993
 4,0.04418442,-0.03550132,-0.00148555,-0.00201442,-0.01540356,-0.000735
 48,0.00056081,0.00090326,0.00001118,0.00004457,0.00007963,-0.00030708,
 -0.00021860,0.00051979,-0.00024858,-0.00000376,0.00028915,0.00025478,-
 0.00007633,0.00023567,-0.00824415,-0.00623411,-0.00045056,-0.05974860,
 -0.02919133,0.04681478,0.00001777,-0.00000143,-0.00000010,-0.00270125,
 0.00147969,-0.00101057,-0.07404052,0.00081773,0.00039131,-0.00270256,-
 0.00150335,0.00101085,-0.00005809,0.00006955,0.00001140,0.00000146,0.0
 0000105,-0.00000012,-0.00005634,-0.00006593,-0.00001118,-0.00020616,0.
 00089246,0.00030959,0.00004946,0.00037760,-0.00017367,0.01168667,0.022
 72932,0.01702818,0.01180348,-0.02260929,-0.01699139,0.05635253,-0.0000
 0135,0.00059017,0.00004345,-0.00119135,0.00183240,0.00013319,0.0008267
 6,-0.39491327,-0.15464897,0.00116954,0.00183158,0.00013844,0.00030668,
 -0.00077798,-0.00004446,0.00000105,-0.00041345,0.00004827,-0.00030325,
 -0.00077997,-0.00004457,0.00043178,-0.00010532,0.00027512,0.00044966,0
 .00002278,-0.00035299,-0.00099454,-0.01009450,-0.00692791,0.00110305,-
 0.01020483,-0.00701285,-0.00091610,0.41310559,-0.00000031,0.00014775,-
 0.00006501,-0.00149021,0.00125971,-0.00025768,0.00049314,-0.19305489,-
 0.08575058,0.00148512,0.00126757,-0.00025778,0.00008540,-0.00023254,0.
 00007967,0.00000012,-0.00004827,0.00007337,-0.00008435,-0.00023303,0.0
 0007963,-0.00018466,0.00038179,0.00045639,-0.00013797,-0.00006011,-0.0
 0000470,0.00340573,0.01089929,0.00100725,-0.00346467,0.01087742,0.0010
 0552,-0.00042875,0.16847187,0.08318212,0.00067682,0.00064249,-0.000767
 34,0.00022636,0.00000117,-0.00020979,0.00068723,-0.00062664,-0.0007640
 7,-0.20786421,-0.00045863,0.23147311,-0.00239226,-0.00050979,0.0030139
 6,-0.00020616,0.00043179,0.00018466,-0.00023655,-0.00022493,0.00024858
 ,-0.00019947,-0.00000067,0.00002056,-0.00007126,-0.00000020,0.00010152
 ,-0.00023583,0.00022234,0.00024861,-0.00239541,0.00048203,0.00299328,-
 0.00019991,-0.00043240,0.00018302,0.19847279,0.00152847,-0.00276320,0.
 00074214,0.00000105,-0.00023091,-0.00000049,-0.00151393,-0.00277618,-0
 .00074626,-0.00045775,-0.01930799,0.00055379,0.00008436,0.00375650,-0.
 00465494,0.00089246,-0.00010531,-0.00038179,0.00035206,0.00026908,0.00
 000376,-0.00000067,0.00008240,0.00000005,-0.00000019,0.00000491,0.0000
 0022,-0.00035454,0.00026802,-0.00000264,-0.00011276,0.00376224,0.00467
 305,-0.00089358,-0.00011200,0.00038296,0.00044392,0.01563820,-0.002855
 02,0.00235153,-0.00009712,-0.00042173,-0.00000105,-0.00028056,-0.00284
 539,-0.00236766,-0.00009687,0.17893245,0.00042777,-0.32257403,0.004310
 97,-0.00439964,0.00054124,-0.00030959,-0.00027511,0.00045639,0.0005909
 5,0.00031727,0.00028915,-0.00002056,-0.00000005,0.00027304,0.00011545,
 0.00000026,-0.00002892,0.00059237,-0.00031443,0.00028923,0.00429272,0.
 00442420,0.00054098,-0.00031108,0.00027360,0.00045650,-0.20845632,-0.0
 0050012,0.34787980,0.00078841,0.00027689,0.00042520,0.00027738,0.00000
 172,0.00019742,0.00079524,-0.00026233,0.00041859,-0.22725857,-0.000518
 12,-0.23427268,-0.00317239,0.00024472,-0.00307390,0.00004946,0.0004496
 5,0.00013797,-0.00023384,-0.00037792,-0.00025478,-0.00007125,-0.000000
 19,-0.00011545,-0.00017672,-0.00000059,0.00001094,-0.00023403,0.000374
 03,-0.00025432,-0.00316541,-0.00027352,-0.00304969,0.00005347,-0.00044
 953,0.00013840,0.01373786,0.00003109,0.02638475,0.21861040,0.00117884,
 -0.00234759,-0.00139619,0.00000150,-0.00038050,0.00000043,-0.00116540,
 -0.00235658,0.00139926,-0.00051405,-0.01971248,-0.00057714,0.00151616,
 0.00301078,0.00546839,0.00037760,0.00002278,0.00006012,0.00027418,0.00
 053731,0.00007633,-0.00000020,0.00000491,-0.00000026,-0.00000059,0.000
 07052,0.00000003,-0.00027777,0.00053748,-0.00007735,-0.00154619,0.0030
 0415,-0.00548771,-0.00037771,0.00001880,-0.00005950,0.00002952,0.00151
 425,0.00006342,0.00050409,0.01607618,0.00278230,-0.00226447,-0.0008841
 0,0.00037912,0.00000089,-0.00021755,0.00277344,0.00228041,-0.00088475,
 -0.18186329,-0.00045146,-0.30032882,-0.00409984,0.00430878,0.00214562,
 0.00017367,0.00035299,-0.00000470,-0.00058164,-0.00021415,0.00023567,-
 0.00010152,-0.00000022,-0.00002893,-0.00001094,-0.00000003,0.00024283,
 -0.00058275,0.00021145,0.00023565,-0.00408185,-0.00433244,0.00214742,0
 .00017554,-0.00035218,-0.00000470,-0.02826979,-0.00006973,-0.02764883,
 0.21330755,0.00053017,0.32499519\\-0.00000006,0.00000043,0.00000037,0.
 00000078,-0.00000071,-0.00000006,0.00000006,-0.00000043,0.00000037,-0.
 00000079,0.00000071,-0.00000006,0.00000025,-0.00000099,-0.00000023,-0.
 00000003,0.00000014,0.00000009,0.,0.00000023,-0.00000036,-0.00000034,0
 .00000003,-0.00000015,-0.00000013,0.00000004,0.00000034,-0.00000025,0.
 00000100,-0.00000024,0.,-0.00000023,-0.00000036,0.00000003,-0.00000014
 ,0.00000009,0.00000034,-0.00000003,-0.00000015,0.00000013,-0.00000004,
 0.00000034\\\@


 I HAVE NOT FAILED, I HAVE ONLY DISCOVERED 10,000
 WAYS THAT DIDN'T WORK.  -- THOMAS A. EDISON
 Job cpu time:  0 days  1 hours 49 minutes 13.4 seconds.
 File lengths (MBytes):  RWF=   4642 Int=      0 D2E=      0 Chk=      9 Scr=      1
 Normal termination of Gaussian 03 at Tue May 18 15:46:58 2010.
