 Entering Gaussian System, Link 0=g03
 Initial command:
 /lustre/lwork/chinh/g03-em64t/g03/l1.exe /lustre/lwork/chinh/tmp/NQC-ppW3-4.xyz.2.com/Gau-14385.inp -scrdir=/lustre/lwork/chinh/tmp/NQC-ppW3-4.xyz.2.com/
 Entering Link 1 = /lustre/lwork/chinh/g03-em64t/g03/l1.exe PID=     14386.
  
 Copyright (c) 1988,1990,1992,1993,1995,1998,2003,2004, Gaussian, Inc.
                  All Rights Reserved.
  
 This is the Gaussian(R) 03 program.  It is based on the
 the Gaussian(R) 98 system (copyright 1998, Gaussian, Inc.),
 the Gaussian(R) 94 system (copyright 1995, Gaussian, Inc.),
 the Gaussian 92(TM) system (copyright 1992, Gaussian, Inc.),
 the Gaussian 90(TM) system (copyright 1990, Gaussian, Inc.),
 the Gaussian 88(TM) system (copyright 1988, Gaussian, Inc.),
 the Gaussian 86(TM) system (copyright 1986, Carnegie Mellon
 University), and the Gaussian 82(TM) system (copyright 1983,
 Carnegie Mellon University). Gaussian is a federally registered
 trademark of Gaussian, Inc.
  
 This software contains proprietary and confidential information,
 including trade secrets, belonging to Gaussian, Inc.
  
 This software is provided under written license and may be
 used, copied, transmitted, or stored only in accord with that
 written license.
  
 The following legend is applicable only to US Government
 contracts under FAR:
  
                    RESTRICTED RIGHTS LEGEND
  
 Use, reproduction and disclosure by the US Government is
 subject to restrictions as set forth in subparagraphs (a)
 and (c) of the Commercial Computer Software - Restricted
 Rights clause in FAR 52.227-19.
  
 Gaussian, Inc.
 340 Quinnipiac St., Bldg. 40, Wallingford CT 06492
  
  
 ---------------------------------------------------------------
 Warning -- This program may not be used in any manner that
 competes with the business of Gaussian, Inc. or will provide
 assistance to any competitor of Gaussian, Inc.  The licensee
 of this program is prohibited from giving any competitor of
 Gaussian, Inc. access to this program.  By using this program,
 the user acknowledges that Gaussian, Inc. is engaged in the
 business of creating and licensing software in the field of
 computational chemistry and represents and warrants to the
 licensee that it is not a competitor of Gaussian, Inc. and that
 it will not use this program in any manner prohibited above.
 ---------------------------------------------------------------
  

 Cite this work as:
 Gaussian 03, Revision D.01,
 M. J. Frisch, G. W. Trucks, H. B. Schlegel, G. E. Scuseria, 
 M. A. Robb, J. R. Cheeseman, J. A. Montgomery, Jr., T. Vreven, 
 K. N. Kudin, J. C. Burant, J. M. Millam, S. S. Iyengar, J. Tomasi, 
 V. Barone, B. Mennucci, M. Cossi, G. Scalmani, N. Rega, 
 G. A. Petersson, H. Nakatsuji, M. Hada, M. Ehara, K. Toyota, 
 R. Fukuda, J. Hasegawa, M. Ishida, T. Nakajima, Y. Honda, O. Kitao, 
 H. Nakai, M. Klene, X. Li, J. E. Knox, H. P. Hratchian, J. B. Cross, 
 V. Bakken, C. Adamo, J. Jaramillo, R. Gomperts, R. E. Stratmann, 
 O. Yazyev, A. J. Austin, R. Cammi, C. Pomelli, J. W. Ochterski, 
 P. Y. Ayala, K. Morokuma, G. A. Voth, P. Salvador, J. J. Dannenberg, 
 V. G. Zakrzewski, S. Dapprich, A. D. Daniels, M. C. Strain, 
 O. Farkas, D. K. Malick, A. D. Rabuck, K. Raghavachari, 
 J. B. Foresman, J. V. Ortiz, Q. Cui, A. G. Baboul, S. Clifford, 
 J. Cioslowski, B. B. Stefanov, G. Liu, A. Liashenko, P. Piskorz, 
 I. Komaromi, R. L. Martin, D. J. Fox, T. Keith, M. A. Al-Laham, 
 C. Y. Peng, A. Nanayakkara, M. Challacombe, P. M. W. Gill, 
 B. Johnson, W. Chen, M. W. Wong, C. Gonzalez, and J. A. Pople, 
 Gaussian, Inc., Wallingford CT, 2004.
 
 ******************************************
 Gaussian 03:  AM64L-G03RevD.01 13-Oct-2005
                18-May-2010 
 ******************************************
 %chk=ppW3-4.xyz.2.chk
 %nproc=4
 Will use up to    4 processors via shared memory.
 %mem=4GB
 ----------------------------------------------
 # Opt=Tight Int=Ultrafine freq mp2/aug-cc-pvDZ
 ----------------------------------------------
 1/7=10,18=20,38=1/1,3;
 2/9=110,17=6,18=5,40=1/2;
 3/5=16,7=10,11=9,16=1,25=1,30=1,75=5/1,2,3;
 4//1;
 5/5=2,38=5/2;
 8/6=4,10=1/1;
 9/15=2,16=-3/6;
 10/5=1/2;
 6/7=2,8=2,9=2,10=2/1;
 7/12=2/1,2,3,16;
 1/18=20/3(3);
 2/9=110/2;
 6/7=2,8=2,9=2,10=2/1;
 99//99;
 2/9=110/2;
 3/5=16,7=10,11=9,16=1,25=1,30=1,75=5/1,2,3;
 4/5=5,16=3/1;
 5/5=2,38=5/2;
 8/6=4,10=1/1;
 9/15=2,16=-3/6;
 10/5=1/2;
 7/12=2/1,2,3,16;
 1/18=20/3(-8);
 2/9=110/2;
 6/7=2,8=2,9=2,10=2/1;
 99//99;
 -----
 Str 5
 -----
 Symbolic Z-matrix:
 Charge =  2 Multiplicity = 1
 O                    -0.32946   2.27901  -0.18255 
 O                     0.03363  -0.06817   0.59079 
 O                    -2.02454  -1.37022  -0.23962 
 O                     2.32636  -0.85113  -0.26018 
 H                    -0.61591   3.00727   0.39256 
 H                    -0.00657   2.67085  -1.00972 
 H                     0.03834  -0.04101   1.56776 
 H                    -0.08358   0.94407   0.27263 
 H                    -2.65478  -0.89107  -0.81486 
 H                    -1.21403  -0.8181    0.13818 
 H                    -2.4864   -1.96851   0.38226 
 H                     1.39208  -0.5699    0.13242 
 H                     3.12162  -0.45445   0.14935 
 H                     2.46132  -1.79507  -0.47808 
 

 GradGradGradGradGradGradGradGradGradGradGradGradGradGradGradGradGradGrad
 Berny optimization.
 Initialization pass.
                           ----------------------------
                           !    Initial Parameters    !
                           ! (Angstroms and Degrees)  !
 --------------------------                            --------------------------
 ! Name  Definition              Value          Derivative Info.                !
 --------------------------------------------------------------------------------
 ! R1    R(1,5)                  0.9712         estimate D2E/DX2                !
 ! R2    R(1,6)                  0.9706         estimate D2E/DX2                !
 ! R3    R(1,8)                  1.4317         estimate D2E/DX2                !
 ! R4    R(2,7)                  0.9774         estimate D2E/DX2                !
 ! R5    R(2,8)                  1.0675         estimate D2E/DX2                !
 ! R6    R(2,10)                 1.5244         estimate D2E/DX2                !
 ! R7    R(2,12)                 1.519          estimate D2E/DX2                !
 ! R8    R(3,9)                  0.9786         estimate D2E/DX2                !
 ! R9    R(3,10)                 1.051          estimate D2E/DX2                !
 ! R10   R(3,11)                 0.9788         estimate D2E/DX2                !
 ! R11   R(4,12)                 1.0517         estimate D2E/DX2                !
 ! R12   R(4,13)                 0.9785         estimate D2E/DX2                !
 ! R13   R(4,14)                 0.9781         estimate D2E/DX2                !
 ! A1    A(5,1,6)              107.4619         estimate D2E/DX2                !
 ! A2    A(5,1,8)              124.1659         estimate D2E/DX2                !
 ! A3    A(6,1,8)              126.1757         estimate D2E/DX2                !
 ! A4    A(7,2,8)              105.7892         estimate D2E/DX2                !
 ! A5    A(7,2,10)             108.3243         estimate D2E/DX2                !
 ! A6    A(7,2,12)             107.8496         estimate D2E/DX2                !
 ! A7    A(8,2,10)             106.7449         estimate D2E/DX2                !
 ! A8    A(8,2,12)             108.7519         estimate D2E/DX2                !
 ! A9    A(10,2,12)            118.6767         estimate D2E/DX2                !
 ! A10   A(9,3,10)             116.7921         estimate D2E/DX2                !
 ! A11   A(9,3,11)             111.6454         estimate D2E/DX2                !
 ! A12   A(10,3,11)            117.1706         estimate D2E/DX2                !
 ! A13   A(12,4,13)            117.2158         estimate D2E/DX2                !
 ! A14   A(12,4,14)            117.6318         estimate D2E/DX2                !
 ! A15   A(13,4,14)            111.8582         estimate D2E/DX2                !
 ! A16   A(2,12,4)             174.5289         estimate D2E/DX2                !
 ! A17   L(1,8,2,10,-1)        176.1831         estimate D2E/DX2                !
 ! A18   L(2,10,3,12,-1)       175.3614         estimate D2E/DX2                !
 ! A19   L(1,8,2,10,-2)        180.5375         estimate D2E/DX2                !
 ! A20   L(2,10,3,12,-2)       182.825          estimate D2E/DX2                !
 ! D1    D(5,1,2,7)            -12.9062         estimate D2E/DX2                !
 ! D2    D(5,1,2,10)           101.659          estimate D2E/DX2                !
 ! D3    D(5,1,2,12)          -129.6802         estimate D2E/DX2                !
 ! D4    D(6,1,2,7)            150.3967         estimate D2E/DX2                !
 ! D5    D(6,1,2,10)           -95.038          estimate D2E/DX2                !
 ! D6    D(6,1,2,12)            33.6227         estimate D2E/DX2                !
 ! D7    D(7,2,3,9)            120.2607         estimate D2E/DX2                !
 ! D8    D(7,2,3,11)           -18.8269         estimate D2E/DX2                !
 ! D9    D(8,2,3,9)              5.7354         estimate D2E/DX2                !
 ! D10   D(8,2,3,11)          -133.3523         estimate D2E/DX2                !
 ! D11   D(12,2,3,9)          -116.5009         estimate D2E/DX2                !
 ! D12   D(12,2,3,11)          104.4114         estimate D2E/DX2                !
 ! D13   D(7,2,12,4)          -141.6558         estimate D2E/DX2                !
 ! D14   D(8,2,12,4)           -27.3752         estimate D2E/DX2                !
 ! D15   D(10,2,12,4)           94.7984         estimate D2E/DX2                !
 ! D16   D(13,4,12,2)           97.7151         estimate D2E/DX2                !
 ! D17   D(14,4,12,2)         -124.4017         estimate D2E/DX2                !
 --------------------------------------------------------------------------------
 Trust Radius=3.00D-01 FncErr=1.00D-07 GrdErr=1.00D-07
 Number of steps in this run=  60 maximum allowed number of steps= 100.
 GradGradGradGradGradGradGradGradGradGradGradGradGradGradGradGradGradGrad

                          Input orientation:                          
 ---------------------------------------------------------------------
 Center     Atomic     Atomic              Coordinates (Angstroms)
 Number     Number      Type              X           Y           Z
 ---------------------------------------------------------------------
    1          8             0       -0.329464    2.279008   -0.182552
    2          8             0        0.033631   -0.068169    0.590791
    3          8             0       -2.024535   -1.370223   -0.239622
    4          8             0        2.326357   -0.851127   -0.260180
    5          1             0       -0.615912    3.007275    0.392560
    6          1             0       -0.006566    2.670846   -1.009719
    7          1             0        0.038338   -0.041009    1.567757
    8          1             0       -0.083584    0.944066    0.272631
    9          1             0       -2.654783   -0.891066   -0.814864
   10          1             0       -1.214028   -0.818097    0.138184
   11          1             0       -2.486400   -1.968507    0.382260
   12          1             0        1.392078   -0.569902    0.132421
   13          1             0        3.121624   -0.454448    0.149345
   14          1             0        2.461319   -1.795067   -0.478077
 ---------------------------------------------------------------------
                    Distance matrix (angstroms):
                    1          2          3          4          5
     1  O    0.000000
     2  O    2.497827   0.000000
     3  O    4.024104   2.573126   0.000000
     4  O    4.105747   2.567833   4.381797   0.000000
     5  H    0.971174   3.149533   4.641806   4.895946   0.000000
     6  H    0.970570   3.172610   4.582083   4.290528   1.565527
     7  H    2.929392   0.977355   3.047765   3.038532   3.331841
     8  H    1.431684   1.067513   3.063597   3.051954   2.134148
     9  H    3.981996   3.143341   0.978625   5.012088   4.562009
    10  H    3.236879   1.524434   1.050953   3.562880   3.880196
    11  H    4.797163   3.163120   0.978775   4.982359   5.315754
    12  H    3.343532   1.518953   3.528764   1.051713   4.110461
    13  H    4.414968   3.143213   5.241459   0.978527   5.100182
    14  H    4.947109   3.165174   4.512232   0.978119   5.769736
                    6          7          8          9         10
     6  H    0.000000
     7  H    3.741598   0.000000
     8  H    2.152237   1.631744   0.000000
     9  H    4.442774   3.694913   3.340871   0.000000
    10  H    3.866312   2.053282   2.097903   1.728988   0.000000
    11  H    5.441579   3.390421   3.777383   1.619363   1.732613
    12  H    3.709870   2.042677   2.118805   4.168642   2.617904
    13  H    4.571265   3.418988   3.499200   5.872581   4.350890
    14  H    5.130056   3.623947   3.813521   5.206260   3.852587
                   11         12         13         14
    11  H    0.000000
    12  H    4.130509   0.000000
    13  H    5.813481   1.733478   0.000000
    14  H    5.024956   1.736955   1.620778   0.000000
 Stoichiometry    H10O4(2+)
 Framework group  C1[X(H10O4)]
 Deg. of freedom    36
 Full point group                 C1
 Largest Abelian subgroup         C1      NOp   1
 Largest concise Abelian subgroup C1      NOp   1
                         Standard orientation:                         
 ---------------------------------------------------------------------
 Center     Atomic     Atomic              Coordinates (Angstroms)
 Number     Number      Type              X           Y           Z
 ---------------------------------------------------------------------
    1          8             0       -0.329463    2.279008   -0.182552
    2          8             0        0.033631   -0.068169    0.590791
    3          8             0       -2.024535   -1.370222   -0.239622
    4          8             0        2.326357   -0.851128   -0.260180
    5          1             0       -0.615911    3.007275    0.392560
    6          1             0       -0.006565    2.670846   -1.009719
    7          1             0        0.038338   -0.041009    1.567757
    8          1             0       -0.083584    0.944066    0.272631
    9          1             0       -2.654783   -0.891065   -0.814864
   10          1             0       -1.214028   -0.818097    0.138184
   11          1             0       -2.486401   -1.968506    0.382260
   12          1             0        1.392078   -0.569903    0.132421
   13          1             0        3.121624   -0.454449    0.149345
   14          1             0        2.461318   -1.795068   -0.478077
 ---------------------------------------------------------------------
 Rotational constants (GHZ):      3.0800483      2.5279599      1.4947414
 Standard basis: Aug-CC-pVDZ (5D, 7F)
 There are   182 symmetry adapted basis functions of A   symmetry.
 Integral buffers will be    131072 words long.
 Raffenetti 1 integral format.
 Two-electron integral symmetry is turned on.
   182 basis functions,   282 primitive gaussians,   190 cartesian basis functions
    20 alpha electrons       20 beta electrons
       nuclear repulsion energy       154.1294674924 Hartrees.
 NAtoms=   14 NActive=   14 NUniq=   14 SFac= 7.50D-01 NAtFMM=   80 NAOKFM=F Big=F
 One-electron integrals computed using PRISM.
 NBasis=   182 RedAO= T  NBF=   182
 NBsUse=   182 1.00D-06 NBFU=   182
 Harris functional with IExCor=  205 diagonalized for initial guess.
 ExpMin= 2.97D-02 ExpMax= 1.17D+04 ExpMxC= 4.01D+02 IAcc=3 IRadAn=         5 AccDes= 0.00D+00
 HarFok:  IExCor= 205 AccDes= 0.00D+00 IRadAn=         5 IDoV=1
 ScaDFX=  1.000000  1.000000  1.000000  1.000000
 Initial guess orbital symmetries:
       Occupied  (A) (A) (A) (A) (A) (A) (A) (A) (A) (A) (A) (A)
                 (A) (A) (A) (A) (A) (A) (A) (A)
       Virtual   (A) (A) (A) (A) (A) (A) (A) (A) (A) (A) (A) (A)
                 (A) (A) (A) (A) (A) (A) (A) (A) (A) (A) (A) (A)
                 (A) (A) (A) (A) (A) (A) (A) (A) (A) (A) (A) (A)
                 (A) (A) (A) (A) (A) (A) (A) (A) (A) (A) (A) (A)
                 (A) (A) (A) (A) (A) (A) (A) (A) (A) (A) (A) (A)
                 (A) (A) (A) (A) (A) (A) (A) (A) (A) (A) (A) (A)
                 (A) (A) (A) (A) (A) (A) (A) (A) (A) (A) (A) (A)
                 (A) (A) (A) (A) (A) (A) (A) (A) (A) (A) (A) (A)
                 (A) (A) (A) (A) (A) (A) (A) (A) (A) (A) (A) (A)
                 (A) (A) (A) (A) (A) (A) (A) (A) (A) (A) (A) (A)
                 (A) (A) (A) (A) (A) (A) (A) (A) (A) (A) (A) (A)
                 (A) (A) (A) (A) (A) (A) (A) (A) (A) (A) (A) (A)
                 (A) (A) (A) (A) (A) (A) (A) (A) (A) (A) (A) (A)
                 (A) (A) (A) (A) (A) (A)
 The electronic state of the initial guess is 1-A.
 Requested convergence on RMS density matrix=1.00D-08 within 128 cycles.
 Requested convergence on MAX density matrix=1.00D-06.
 Requested convergence on             energy=1.00D-06.
 No special actions if energy rises.
 Keep R1 integrals in memory in canonical form, NReq=   169079188.
 SCF Done:  E(RHF) =  -304.692112934     A.U. after   11 cycles
             Convg  =    0.2135D-08             -V/T =  2.0017
             S**2   =   0.0000
 ExpMin= 2.97D-02 ExpMax= 1.17D+04 ExpMxC= 4.01D+02 IAcc=3 IRadAn=         5 AccDes= 0.00D+00
 HarFok:  IExCor= 205 AccDes= 0.00D+00 IRadAn=         5 IDoV=1
 ScaDFX=  1.000000  1.000000  1.000000  1.000000
 Range of M.O.s used for correlation:     5   182
 NBasis=   182 NAE=    20 NBE=    20 NFC=     4 NFV=     0
 NROrb=    178 NOA=    16 NOB=    16 NVA=   162 NVB=   162

 **** Warning!!: The largest alpha MO coefficient is  0.14369534D+02

 Fully direct method using O(ONN) memory.
 JobTyp=1 Pass  1:  I=   5 to  20 NPSUse=  4 ParTrn=T ParDer=T DoDerP=T.
 Spin components of T(2) and E(2):
     alpha-alpha T2 =       0.2995521533D-01 E2=     -0.1133197619D+00
     alpha-beta  T2 =       0.1687934347D+00 E2=     -0.6600939600D+00
     beta-beta   T2 =       0.2995521533D-01 E2=     -0.1133197619D+00
 ANorm=    0.1108469154D+01
 E2 =    -0.8867334839D+00 EUMP2 =    -0.30557884641824D+03
 DoAtom=TTTTTTTTTTTTTT
          Differentiating once with respect to electric field.
                with respect to dipole field.
          Differentiating once with respect to nuclear coordinates.
          Store integrals in memory, NReq=   165451101.
          There are   1 degrees of freedom in the 1st order CPHF.
     1 vectors were produced by pass  0.
 AX will form   1 AO Fock derivatives at one time.
     1 vectors were produced by pass  1.
     1 vectors were produced by pass  2.
     1 vectors were produced by pass  3.
     1 vectors were produced by pass  4.
     1 vectors were produced by pass  5.
     1 vectors were produced by pass  6.
     1 vectors were produced by pass  7.
     1 vectors were produced by pass  8.
     1 vectors were produced by pass  9.
     1 vectors were produced by pass 10.
     1 vectors were produced by pass 11.
 Inv2:  IOpt= 1 Iter= 1 AM= 2.90D-16 Conv= 1.00D-12.
 Inverted reduced A of dimension   12 with in-core refinement.
 End of Minotr Frequency-dependent properties file   721 does not exist.

 **********************************************************************

            Population analysis using the SCF density.

 **********************************************************************

 Orbital symmetries:
       Occupied  (A) (A) (A) (A) (A) (A) (A) (A) (A) (A) (A) (A)
                 (A) (A) (A) (A) (A) (A) (A) (A)
       Virtual   (A) (A) (A) (A) (A) (A) (A) (A) (A) (A) (A) (A)
                 (A) (A) (A) (A) (A) (A) (A) (A) (A) (A) (A) (A)
                 (A) (A) (A) (A) (A) (A) (A) (A) (A) (A) (A) (A)
                 (A) (A) (A) (A) (A) (A) (A) (A) (A) (A) (A) (A)
                 (A) (A) (A) (A) (A) (A) (A) (A) (A) (A) (A) (A)
                 (A) (A) (A) (A) (A) (A) (A) (A) (A) (A) (A) (A)
                 (A) (A) (A) (A) (A) (A) (A) (A) (A) (A) (A) (A)
                 (A) (A) (A) (A) (A) (A) (A) (A) (A) (A) (A) (A)
                 (A) (A) (A) (A) (A) (A) (A) (A) (A) (A) (A) (A)
                 (A) (A) (A) (A) (A) (A) (A) (A) (A) (A) (A) (A)
                 (A) (A) (A) (A) (A) (A) (A) (A) (A) (A) (A) (A)
                 (A) (A) (A) (A) (A) (A) (A) (A) (A) (A) (A) (A)
                 (A) (A) (A) (A) (A) (A) (A) (A) (A) (A) (A) (A)
                 (A) (A) (A) (A) (A) (A)
 The electronic state is 1-A.
 Alpha  occ. eigenvalues --  -21.03933 -21.03777 -20.96181 -20.90908  -1.83023
 Alpha  occ. eigenvalues --   -1.82756  -1.73671  -1.68552  -1.18327  -1.17507
 Alpha  occ. eigenvalues --   -1.17209  -1.17114  -1.10419  -1.05089  -0.99952
 Alpha  occ. eigenvalues --   -0.98618  -0.98041  -0.91022  -0.90121  -0.84683
 Alpha virt. eigenvalues --   -0.24539  -0.21625  -0.19403  -0.19005  -0.17052
 Alpha virt. eigenvalues --   -0.15709  -0.15315  -0.13647  -0.13029  -0.12448
 Alpha virt. eigenvalues --   -0.10154  -0.08134  -0.07794  -0.07411  -0.06861
 Alpha virt. eigenvalues --   -0.05589  -0.05129  -0.04722  -0.04531  -0.03684
 Alpha virt. eigenvalues --   -0.03485  -0.02798  -0.02212  -0.01358  -0.00088
 Alpha virt. eigenvalues --    0.00635   0.01085   0.02057   0.03337   0.04083
 Alpha virt. eigenvalues --    0.05112   0.06284   0.07623   0.09576   0.10357
 Alpha virt. eigenvalues --    0.10783   0.13733   0.15329   0.16854   0.17126
 Alpha virt. eigenvalues --    0.19301   0.20157   0.21547   0.23030   0.24145
 Alpha virt. eigenvalues --    0.24709   0.25117   0.25547   0.26409   0.26926
 Alpha virt. eigenvalues --    0.28188   0.29800   0.31459   0.31675   0.32641
 Alpha virt. eigenvalues --    0.33236   0.34566   0.35022   0.36074   0.37601
 Alpha virt. eigenvalues --    0.38860   0.40705   0.43247   0.46382   0.49923
 Alpha virt. eigenvalues --    0.53352   0.57313   0.58156   0.59245   0.62753
 Alpha virt. eigenvalues --    0.63973   0.64213   0.66208   0.67355   0.73556
 Alpha virt. eigenvalues --    0.75807   0.77876   0.79965   0.82663   0.82863
 Alpha virt. eigenvalues --    0.85570   0.88222   0.90276   0.92753   1.00279
 Alpha virt. eigenvalues --    1.03050   1.04910   1.07872   1.09468   1.11099
 Alpha virt. eigenvalues --    1.14294   1.15457   1.17804   1.19004   1.21930
 Alpha virt. eigenvalues --    1.27258   1.31261   1.32542   1.38666   1.52611
 Alpha virt. eigenvalues --    1.55768   1.58717   1.63153   1.63857   1.65653
 Alpha virt. eigenvalues --    1.66924   1.68964   1.72985   1.73608   1.74641
 Alpha virt. eigenvalues --    1.76355   1.78630   1.83677   1.86243   1.94956
 Alpha virt. eigenvalues --    1.97919   2.03859   2.04787   2.06254   2.12931
 Alpha virt. eigenvalues --    2.16623   2.17627   2.18893   2.21208   2.25193
 Alpha virt. eigenvalues --    2.28066   2.30254   2.35315   2.38326   2.40231
 Alpha virt. eigenvalues --    2.41647   2.45058   2.46711   2.47514   2.60364
 Alpha virt. eigenvalues --    2.61941   2.62900   2.65514   2.78425   2.81439
 Alpha virt. eigenvalues --    2.88884   2.92948   3.27086   3.27490   3.31354
 Alpha virt. eigenvalues --    3.32122   3.37170   3.39293   3.42315   3.45733
 Alpha virt. eigenvalues --    3.48201   3.51895   3.65493   3.68561   3.76071
 Alpha virt. eigenvalues --    3.80893   3.83565   3.84687   3.99729   4.00942
 Alpha virt. eigenvalues --    4.02594   4.19311
          Condensed to atoms (all electrons):
              1          2          3          4          5          6
     1  O    7.946677  -0.018652   0.000373  -0.001900   0.368837   0.365272
     2  O   -0.018652   8.703502  -0.016650  -0.007049   0.000511   0.005394
     3  O    0.000373  -0.016650   7.434862  -0.002123   0.000271  -0.000253
     4  O   -0.001900  -0.007049  -0.002123   7.451537  -0.000471   0.001224
     5  H    0.368837   0.000511   0.000271  -0.000471   0.440922  -0.041335
     6  H    0.365272   0.005394  -0.000253   0.001224  -0.041335   0.452352
     7  H   -0.016313   0.355179  -0.002739  -0.007449   0.000904  -0.001055
     8  H   -0.112531   0.202098  -0.005194  -0.000928  -0.009521  -0.007847
     9  H    0.001591  -0.004942   0.357497  -0.000012   0.000186   0.000069
    10  H   -0.002039  -0.043045   0.122254   0.002314   0.000334   0.001684
    11  H   -0.000322  -0.008721   0.359954   0.000226  -0.000183  -0.000145
    12  H   -0.002292  -0.046557  -0.000165   0.127309   0.001076  -0.002444
    13  H    0.000626  -0.010664  -0.000451   0.342504  -0.000062   0.000079
    14  H   -0.000200  -0.004694   0.001280   0.360908  -0.000087   0.000036
              7          8          9         10         11         12
     1  O   -0.016313  -0.112531   0.001591  -0.002039  -0.000322  -0.002292
     2  O    0.355179   0.202098  -0.004942  -0.043045  -0.008721  -0.046557
     3  O   -0.002739  -0.005194   0.357497   0.122254   0.359954  -0.000165
     4  O   -0.007449  -0.000928  -0.000012   0.002314   0.000226   0.127309
     5  H    0.000904  -0.009521   0.000186   0.000334  -0.000183   0.001076
     6  H   -0.001055  -0.007847   0.000069   0.001684  -0.000145  -0.002444
     7  H    0.374938  -0.009756  -0.000764  -0.004534   0.000393  -0.002076
     8  H   -0.009756   0.250737  -0.002457   0.001925   0.001611   0.002853
     9  H   -0.000764  -0.002457   0.375162  -0.017063  -0.027262   0.000131
    10  H   -0.004534   0.001925  -0.017063   0.272821  -0.028856  -0.000420
    11  H    0.000393   0.001611  -0.027262  -0.028856   0.383813   0.000179
    12  H   -0.002076   0.002853   0.000131  -0.000420   0.000179   0.274817
    13  H    0.000099   0.000287   0.000028   0.000476  -0.000007  -0.022802
    14  H   -0.000566   0.001368  -0.000001  -0.001695   0.000096  -0.028726
             13         14
     1  O    0.000626  -0.000200
     2  O   -0.010664  -0.004694
     3  O   -0.000451   0.001280
     4  O    0.342504   0.360908
     5  H   -0.000062  -0.000087
     6  H    0.000079   0.000036
     7  H    0.000099  -0.000566
     8  H    0.000287   0.001368
     9  H    0.000028  -0.000001
    10  H    0.000476  -0.001695
    11  H   -0.000007   0.000096
    12  H   -0.022802  -0.028726
    13  H    0.371483  -0.019691
    14  H   -0.019691   0.378927
 Mulliken atomic charges:
              1
     1  O   -0.529128
     2  O   -1.105712
     3  O   -0.248915
     4  O   -0.266091
     5  H    0.238619
     6  H    0.226970
     7  H    0.313738
     8  H    0.687356
     9  H    0.317837
    10  H    0.695846
    11  H    0.319224
    12  H    0.699117
    13  H    0.338095
    14  H    0.313045
 Sum of Mulliken charges=   2.00000
 Atomic charges with hydrogens summed into heavy atoms:
              1
     1  O   -0.063540
     2  O   -0.104619
     3  O    1.083993
     4  O    1.084166
     5  H    0.000000
     6  H    0.000000
     7  H    0.000000
     8  H    0.000000
     9  H    0.000000
    10  H    0.000000
    11  H    0.000000
    12  H    0.000000
    13  H    0.000000
    14  H    0.000000
 Sum of Mulliken charges=   2.00000
 Electronic spatial extent (au):  <R**2>=   728.6232
 Charge=     2.0000 electrons
 Dipole moment (field-independent basis, Debye):
    X=     0.2289    Y=    -2.7823    Z=     0.9976  Tot=     2.9646
 Quadrupole moment (field-independent basis, Debye-Ang):
   XX=    24.7191   YY=     7.2680   ZZ=   -16.6716
   XY=     0.3445   XZ=     0.6619   YZ=    -1.2517
 Traceless Quadrupole moment (field-independent basis, Debye-Ang):
   XX=    19.6139   YY=     2.1628   ZZ=   -21.7768
   XY=     0.3445   XZ=     0.6619   YZ=    -1.2517
 Octapole moment (field-independent basis, Debye-Ang**2):
  XXX=    19.1906  YYY=    29.0316  ZZZ=     4.4879  XYY=    -9.9352
  XXY=   -58.6732  XXZ=    -4.9047  XZZ=    -4.5330  YZZ=     3.5119
  YYZ=    -3.3757  XYZ=     3.3091
 Hexadecapole moment (field-independent basis, Debye-Ang**3):
 XXXX=    35.8789 YYYY=   -80.8334 ZZZZ=   -26.9590 XXXY=    17.7898
 XXXZ=    23.2979 YYYX=   -18.9072 YYYZ=   -11.5815 ZZZX=     3.5294
 ZZZY=    -5.5983 XXYY=   -19.2374 XXZZ=   -56.9936 YYZZ=   -38.8559
 XXYZ=     7.7045 YYXZ=   -26.8599 ZZXY=     3.2309
 N-N= 1.541294674924D+02 E-N=-1.014787667414D+03  KE= 3.041625647234D+02
 ***** Axes restored to original set *****
 -------------------------------------------------------------------
 Center     Atomic                   Forces (Hartrees/Bohr)
 Number     Number              X              Y              Z
 -------------------------------------------------------------------
    1          8          -0.000881371   -0.000720129   -0.000810761
    2          8          -0.000112247    0.002006185   -0.002616794
    3          8           0.004215304   -0.001026728   -0.001736091
    4          8          -0.002732808    0.002310331   -0.002702956
    5          1           0.000766705    0.000601652   -0.001282047
    6          1          -0.000314837    0.001390283    0.001214433
    7          1           0.000006303    0.001172987   -0.000199200
    8          1           0.000585658   -0.004437516    0.003339197
    9          1          -0.000122335    0.000226673    0.001930533
   10          1          -0.004919261   -0.001000218   -0.000217876
   11          1          -0.000320558    0.001877536    0.000117421
   12          1           0.004556360   -0.001729504    0.000349782
   13          1          -0.000933840   -0.001348903    0.000872983
   14          1           0.000206926    0.000677351    0.001741376
 -------------------------------------------------------------------
 Cartesian Forces:  Max     0.004919261 RMS     0.001933606

 GradGradGradGradGradGradGradGradGradGradGradGradGradGradGradGradGradGrad
 Berny optimization.
 Internal  Forces:  Max     0.003746055 RMS     0.001252899
 Search for a local minimum.
 Step number   1 out of a maximum of  60
 All quantities printed in internal units (Hartrees-Bohrs-Radians)
 Second derivative matrix not updated -- first step.
     Eigenvalues ---    0.00230   0.00230   0.00230   0.00344   0.00415
     Eigenvalues ---    0.01652   0.03936   0.04054   0.05849   0.06917
     Eigenvalues ---    0.10723   0.10856   0.12167   0.13302   0.14095
     Eigenvalues ---    0.16000   0.16000   0.16000   0.16000   0.16000
     Eigenvalues ---    0.16000   0.23899   0.24120   0.24661   0.24730
     Eigenvalues ---    0.25000   0.37546   0.39640   0.39744   0.51623
     Eigenvalues ---    0.51653   0.51672   0.51752   0.51902   0.53138
     Eigenvalues ---    0.532611000.000001000.000001000.000001000.00000
     Eigenvalues --- 1000.000001000.000001000.000001000.000001000.00000
     Eigenvalues --- 1000.000001000.000001000.000001000.000001000.00000
 RFO step:  Lambda=-8.69897125D-04.
 Linear search not attempted -- first point.
 Iteration  1 RMS(Cart)=  0.02472822 RMS(Int)=  0.00105268
 Iteration  2 RMS(Cart)=  0.00088133 RMS(Int)=  0.00062555
 Iteration  3 RMS(Cart)=  0.00000092 RMS(Int)=  0.00062555
 Variable       Old X    -DE/DX   Delta X   Delta X   Delta X     New X
                                 (Linear)    (Quad)   (Total)
    R1        1.83525  -0.00053   0.00000  -0.00100  -0.00100   1.83425
    R2        1.83411  -0.00058   0.00000  -0.00108  -0.00108   1.83303
    R3        2.70549   0.00153   0.00000   0.01147   0.01147   2.71696
    R4        1.84693  -0.00017   0.00000  -0.00032  -0.00032   1.84661
    R5        2.01731  -0.00375   0.00000  -0.00996  -0.00996   2.00735
    R6        2.88076   0.00089   0.00000   0.00810   0.00809   2.88885
    R7        2.87040   0.00093   0.00000   0.00852   0.00852   2.87892
    R8        1.84933  -0.00095   0.00000  -0.00183  -0.00183   1.84751
    R9        1.98601  -0.00361   0.00000  -0.00902  -0.00901   1.97701
   R10        1.84962  -0.00092   0.00000  -0.00178  -0.00178   1.84783
   R11        1.98745  -0.00348   0.00000  -0.00876  -0.00876   1.97869
   R12        1.84915  -0.00094   0.00000  -0.00182  -0.00182   1.84733
   R13        1.84838  -0.00101   0.00000  -0.00195  -0.00195   1.84642
    A1        1.87556  -0.00194   0.00000  -0.01807  -0.01879   1.85677
    A2        2.16710   0.00068   0.00000  -0.00161  -0.00230   2.16481
    A3        2.20218   0.00113   0.00000   0.00123   0.00054   2.20272
    A4        1.84637  -0.00089   0.00000  -0.01356  -0.01352   1.83285
    A5        1.89062   0.00019   0.00000   0.00003  -0.00002   1.89060
    A6        1.88233  -0.00019   0.00000  -0.00166  -0.00168   1.88065
    A7        1.86305  -0.00033   0.00000  -0.00145  -0.00148   1.86157
    A8        1.89808   0.00020   0.00000   0.00266   0.00261   1.90069
    A9        2.07130   0.00083   0.00000   0.01103   0.01100   2.08230
   A10        2.03841  -0.00071   0.00000  -0.02134  -0.02264   2.01577
   A11        1.94858  -0.00035   0.00000  -0.02367  -0.02545   1.92313
   A12        2.04501  -0.00088   0.00000  -0.02224  -0.02352   2.02149
   A13        2.04580  -0.00132   0.00000  -0.02426  -0.02561   2.02020
   A14        2.05306  -0.00093   0.00000  -0.02180  -0.02314   2.02992
   A15        1.95229  -0.00073   0.00000  -0.02544  -0.02736   1.92493
   A16        3.04610  -0.00032   0.00000  -0.00129  -0.00129   3.04482
   A17        3.07497  -0.00081   0.00000  -0.00231  -0.00220   3.07277
   A18        3.06063  -0.00177   0.00000  -0.00170  -0.00108   3.05955
   A19        3.15097  -0.00042   0.00000  -0.00114  -0.00113   3.14985
   A20        3.19090   0.00007   0.00000   0.00013   0.00011   3.19100
    D1       -0.22526   0.00020   0.00000   0.03360   0.03349  -0.19177
    D2        1.77428  -0.00019   0.00000   0.02694   0.02691   1.80120
    D3       -2.26335   0.00052   0.00000   0.04089   0.04082  -2.22253
    D4        2.62492  -0.00020   0.00000  -0.04646  -0.04643   2.57849
    D5       -1.65873  -0.00059   0.00000  -0.05311  -0.05301  -1.71174
    D6        0.58683   0.00012   0.00000  -0.03917  -0.03910   0.54773
    D7        2.09895  -0.00121   0.00000  -0.06130  -0.06096   2.03799
    D8       -0.32859   0.00045   0.00000   0.03636   0.03593  -0.29266
    D9        0.10010  -0.00047   0.00000  -0.04512  -0.04469   0.05541
   D10       -2.32744   0.00118   0.00000   0.05253   0.05220  -2.27524
   D11       -2.03332  -0.00086   0.00000  -0.05521  -0.05483  -2.08815
   D12        1.82232   0.00079   0.00000   0.04244   0.04206   1.86438
   D13       -2.47236   0.00058   0.00000   0.00593   0.00590  -2.46646
   D14       -0.47779  -0.00046   0.00000  -0.00947  -0.00946  -0.48725
   D15        1.65454  -0.00013   0.00000  -0.00093  -0.00091   1.65364
   D16        1.70545   0.00214   0.00000   0.05057   0.04934   1.75479
   D17       -2.17122  -0.00216   0.00000  -0.05619  -0.05496  -2.22618
         Item               Value     Threshold  Converged?
 Maximum Force            0.003746     0.000015     NO 
 RMS     Force            0.001253     0.000010     NO 
 Maximum Displacement     0.064922     0.000060     NO 
 RMS     Displacement     0.024918     0.000040     NO 
 Predicted change in Energy=-4.133607D-04
 GradGradGradGradGradGradGradGradGradGradGradGradGradGradGradGradGradGrad

                          Input orientation:                          
 ---------------------------------------------------------------------
 Center     Atomic     Atomic              Coordinates (Angstroms)
 Number     Number      Type              X           Y           Z
 ---------------------------------------------------------------------
    1          8             0       -0.347487    2.272327   -0.187552
    2          8             0        0.036037   -0.077884    0.568830
    3          8             0       -2.025009   -1.381095   -0.250899
    4          8             0        2.336943   -0.840108   -0.278279
    5          1             0       -0.611229    2.999381    0.398946
    6          1             0       -0.001669    2.683819   -0.995003
    7          1             0        0.042317   -0.044918    1.545438
    8          1             0       -0.088033    0.930940    0.260221
    9          1             0       -2.670457   -0.874432   -0.782411
   10          1             0       -1.217189   -0.830353    0.121413
   11          1             0       -2.490926   -1.945298    0.397755
   12          1             0        1.403790   -0.569119    0.111807
   13          1             0        3.114003   -0.456832    0.174392
   14          1             0        2.476983   -1.792847   -0.443722
 ---------------------------------------------------------------------
                    Distance matrix (angstroms):
                    1          2          3          4          5
     1  O    0.000000
     2  O    2.498539   0.000000
     3  O    4.020646   2.572591   0.000000
     4  O    4.111162   2.567635   4.395458   0.000000
     5  H    0.970643   3.149187   4.648618   4.887947   0.000000
     6  H    0.969996   3.173956   4.601209   4.289623   1.553782
     7  H    2.919732   0.977185   3.047299   3.037035   3.318031
     8  H    1.437755   1.062242   3.059188   3.050754   2.138090
     9  H    3.956279   3.128171   0.977659   5.032831   4.543397
    10  H    3.237046   1.528714   1.046187   3.576549   3.887297
    11  H    4.767104   3.146751   0.977832   4.998678   5.289907
    12  H    3.351180   1.523460   3.542249   1.047080   4.108156
    13  H    4.422808   3.126189   5.238758   0.977565   5.086569
    14  H    4.956703   3.150330   4.524893   0.977085   5.763037
                    6          7          8          9         10
     6  H    0.000000
     7  H    3.728510   0.000000
     8  H    2.157691   1.618973   0.000000
     9  H    4.452951   3.669621   3.318940   0.000000
    10  H    3.882432   2.056966   2.096763   1.711967   0.000000
    11  H    5.437361   3.368373   3.750407   1.603677   1.715189
    12  H    3.712405   2.045409   2.120788   4.182384   2.633983
    13  H    4.575870   3.388908   3.490890   5.877912   4.347591
    14  H    5.146666   3.597168   3.807080   5.239689   3.859104
                   11         12         13         14
    11  H    0.000000
    12  H    4.140586   0.000000
    13  H    5.803503   1.715037   0.000000
    14  H    5.040977   1.719845   1.603994   0.000000
 Stoichiometry    H10O4(2+)
 Framework group  C1[X(H10O4)]
 Deg. of freedom    36
 Full point group                 C1
 Largest Abelian subgroup         C1      NOp   1
 Largest concise Abelian subgroup C1      NOp   1
                         Standard orientation:                         
 ---------------------------------------------------------------------
 Center     Atomic     Atomic              Coordinates (Angstroms)
 Number     Number      Type              X           Y           Z
 ---------------------------------------------------------------------
    1          8             0       -0.353006    2.273933   -0.179597
    2          8             0        0.036599   -0.074793    0.578292
    3          8             0       -2.019835   -1.384383   -0.242853
    4          8             0        2.340551   -0.830726   -0.266171
    5          1             0       -0.619442    3.000496    0.406291
    6          1             0       -0.007585    2.686043   -0.986902
    7          1             0        0.041814   -0.041343    1.554890
    8          1             0       -0.090097    0.933519    0.269076
    9          1             0       -2.666226   -0.879852   -0.775247
   10          1             0       -1.213989   -0.831116    0.129995
   11          1             0       -2.484752   -1.949629    0.405610
   12          1             0        1.406228   -0.562266    0.122860
   13          1             0        3.116044   -0.444976    0.187085
   14          1             0        2.483525   -1.783133   -0.431018
 ---------------------------------------------------------------------
 Rotational constants (GHZ):      3.0937849      2.5172091      1.4912138
 Standard basis: Aug-CC-pVDZ (5D, 7F)
 There are   182 symmetry adapted basis functions of A   symmetry.
 Integral buffers will be    131072 words long.
 Raffenetti 1 integral format.
 Two-electron integral symmetry is turned on.
   182 basis functions,   282 primitive gaussians,   190 cartesian basis functions
    20 alpha electrons       20 beta electrons
       nuclear repulsion energy       154.1993318642 Hartrees.
 NAtoms=   14 NActive=   14 NUniq=   14 SFac= 7.50D-01 NAtFMM=   80 NAOKFM=F Big=F
 One-electron integrals computed using PRISM.
 NBasis=   182 RedAO= T  NBF=   182
 NBsUse=   182 1.00D-06 NBFU=   182
 Initial guess read from the read-write file:
 Initial guess orbital symmetries:
       Occupied  (A) (A) (A) (A) (A) (A) (A) (A) (A) (A) (A) (A)
                 (A) (A) (A) (A) (A) (A) (A) (A)
       Virtual   (A) (A) (A) (A) (A) (A) (A) (A) (A) (A) (A) (A)
                 (A) (A) (A) (A) (A) (A) (A) (A) (A) (A) (A) (A)
                 (A) (A) (A) (A) (A) (A) (A) (A) (A) (A) (A) (A)
                 (A) (A) (A) (A) (A) (A) (A) (A) (A) (A) (A) (A)
                 (A) (A) (A) (A) (A) (A) (A) (A) (A) (A) (A) (A)
                 (A) (A) (A) (A) (A) (A) (A) (A) (A) (A) (A) (A)
                 (A) (A) (A) (A) (A) (A) (A) (A) (A) (A) (A) (A)
                 (A) (A) (A) (A) (A) (A) (A) (A) (A) (A) (A) (A)
                 (A) (A) (A) (A) (A) (A) (A) (A) (A) (A) (A) (A)
                 (A) (A) (A) (A) (A) (A) (A) (A) (A) (A) (A) (A)
                 (A) (A) (A) (A) (A) (A) (A) (A) (A) (A) (A) (A)
                 (A) (A) (A) (A) (A) (A) (A) (A) (A) (A) (A) (A)
                 (A) (A) (A) (A) (A) (A) (A) (A) (A) (A) (A) (A)
                 (A) (A) (A) (A) (A) (A)
 Harris functional with IExCor=  205 diagonalized for initial guess.
 ExpMin= 2.97D-02 ExpMax= 1.17D+04 ExpMxC= 4.01D+02 IAcc=3 IRadAn=         5 AccDes= 0.00D+00
 HarFok:  IExCor= 205 AccDes= 0.00D+00 IRadAn=         5 IDoV=1
 ScaDFX=  1.000000  1.000000  1.000000  1.000000
 Requested convergence on RMS density matrix=1.00D-08 within 128 cycles.
 Requested convergence on MAX density matrix=1.00D-06.
 Requested convergence on             energy=1.00D-06.
 No special actions if energy rises.
 Keep R1 integrals in memory in canonical form, NReq=   169079188.
 SCF Done:  E(RHF) =  -304.693038482     A.U. after    9 cycles
             Convg  =    0.7309D-08             -V/T =  2.0016
             S**2   =   0.0000
 ExpMin= 2.97D-02 ExpMax= 1.17D+04 ExpMxC= 4.01D+02 IAcc=3 IRadAn=         5 AccDes= 0.00D+00
 HarFok:  IExCor= 205 AccDes= 0.00D+00 IRadAn=         5 IDoV=1
 ScaDFX=  1.000000  1.000000  1.000000  1.000000
 Range of M.O.s used for correlation:     5   182
 NBasis=   182 NAE=    20 NBE=    20 NFC=     4 NFV=     0
 NROrb=    178 NOA=    16 NOB=    16 NVA=   162 NVB=   162

 **** Warning!!: The largest alpha MO coefficient is  0.15894784D+02

 Fully direct method using O(ONN) memory.
 JobTyp=1 Pass  1:  I=   5 to  20 NPSUse=  4 ParTrn=T ParDer=T DoDerP=T.
 Spin components of T(2) and E(2):
     alpha-alpha T2 =       0.2991193914D-01 E2=     -0.1132355677D+00
     alpha-beta  T2 =       0.1686509734D+00 E2=     -0.6599742491D+00
     beta-beta   T2 =       0.2991193914D-01 E2=     -0.1132355677D+00
 ANorm=    0.1108365847D+01
 E2 =    -0.8864453844D+00 EUMP2 =    -0.30557948386655D+03
 DoAtom=TTTTTTTTTTTTTT
          Differentiating once with respect to electric field.
                with respect to dipole field.
          Differentiating once with respect to nuclear coordinates.
          Store integrals in memory, NReq=   165451101.
          There are   1 degrees of freedom in the 1st order CPHF.
     1 vectors were produced by pass  0.
 AX will form   1 AO Fock derivatives at one time.
     1 vectors were produced by pass  1.
     1 vectors were produced by pass  2.
     1 vectors were produced by pass  3.
     1 vectors were produced by pass  4.
     1 vectors were produced by pass  5.
     1 vectors were produced by pass  6.
     1 vectors were produced by pass  7.
     1 vectors were produced by pass  8.
     1 vectors were produced by pass  9.
     1 vectors were produced by pass 10.
     1 vectors were produced by pass 11.
 Inv2:  IOpt= 1 Iter= 1 AM= 2.31D-16 Conv= 1.00D-12.
 Inverted reduced A of dimension   12 with in-core refinement.
 End of Minotr Frequency-dependent properties file   721 does not exist.
 ***** Axes restored to original set *****
 -------------------------------------------------------------------
 Center     Atomic                   Forces (Hartrees/Bohr)
 Number     Number              X              Y              Z
 -------------------------------------------------------------------
    1          8          -0.000904545    0.000718771   -0.000809713
    2          8          -0.000226838    0.002069417   -0.000895197
    3          8           0.002458087   -0.001170336   -0.001487420
    4          8          -0.001231437    0.001621045   -0.002149431
    5          1           0.000037842    0.000477874    0.000095768
    6          1           0.000201116    0.000500092   -0.000222491
    7          1           0.000028150    0.000453929    0.000071844
    8          1           0.000894388   -0.003486611    0.002082922
    9          1          -0.000569603    0.001177712   -0.000102341
   10          1          -0.003371155   -0.000285450    0.000165701
   11          1          -0.000339257   -0.000006545    0.001176568
   12          1           0.002921957   -0.001289614    0.000623424
   13          1           0.000427026    0.000436327    0.001093814
   14          1          -0.000325733   -0.001216612    0.000356553
 -------------------------------------------------------------------
 Cartesian Forces:  Max     0.003486611 RMS     0.001310829

 GradGradGradGradGradGradGradGradGradGradGradGradGradGradGradGradGradGrad
 Berny optimization.
 Internal  Forces:  Max     0.002057048 RMS     0.000797622
 Search for a local minimum.
 Step number   2 out of a maximum of  60
 All quantities printed in internal units (Hartrees-Bohrs-Radians)
 Update second derivatives using D2CorX and points  1  2
 Trust test= 1.54D+00 RLast= 1.87D-01 DXMaxT set to 4.24D-01
     Eigenvalues ---    0.00230   0.00230   0.00230   0.00344   0.00494
     Eigenvalues ---    0.01325   0.03819   0.04003   0.05797   0.06989
     Eigenvalues ---    0.10755   0.10909   0.12186   0.13025   0.14121
     Eigenvalues ---    0.15590   0.16000   0.16000   0.16000   0.16000
     Eigenvalues ---    0.16740   0.23420   0.24099   0.24623   0.24723
     Eigenvalues ---    0.25065   0.36592   0.39677   0.39750   0.51633
     Eigenvalues ---    0.51663   0.51724   0.51901   0.52945   0.53203
     Eigenvalues ---    0.555141000.000001000.000001000.000001000.00000
     Eigenvalues --- 1000.000001000.000001000.000001000.000001000.00000
     Eigenvalues --- 1000.000001000.000001000.000001000.000001000.00000
 RFO step:  Lambda=-2.61434902D-04.
 Quartic linear search produced a step of  0.59311.
 Iteration  1 RMS(Cart)=  0.02430912 RMS(Int)=  0.00110443
 Iteration  2 RMS(Cart)=  0.00065881 RMS(Int)=  0.00086724
 Iteration  3 RMS(Cart)=  0.00000086 RMS(Int)=  0.00086724
 Variable       Old X    -DE/DX   Delta X   Delta X   Delta X     New X
                                 (Linear)    (Quad)   (Total)
    R1        1.83425   0.00041  -0.00060   0.00149   0.00090   1.83515
    R2        1.83303   0.00047  -0.00064   0.00170   0.00106   1.83409
    R3        2.71696   0.00199   0.00680   0.02061   0.02741   2.74438
    R4        1.84661   0.00009  -0.00019   0.00036   0.00017   1.84678
    R5        2.00735  -0.00206  -0.00591  -0.00602  -0.01193   1.99541
    R6        2.88885   0.00171   0.00480   0.02301   0.02780   2.91665
    R7        2.87892   0.00178   0.00505   0.02363   0.02868   2.90761
    R8        1.84751   0.00104  -0.00108   0.00372   0.00264   1.85015
    R9        1.97701  -0.00106  -0.00534  -0.00176  -0.00708   1.96993
   R10        1.84783   0.00095  -0.00106   0.00342   0.00236   1.85019
   R11        1.97869  -0.00096  -0.00519  -0.00149  -0.00668   1.97201
   R12        1.84733   0.00102  -0.00108   0.00364   0.00257   1.84990
   R13        1.84642   0.00108  -0.00116   0.00387   0.00271   1.84913
    A1        1.85677  -0.00039  -0.01114   0.00207  -0.00957   1.84720
    A2        2.16481   0.00005  -0.00136   0.00159  -0.00025   2.16456
    A3        2.20272   0.00015   0.00032   0.00184   0.00168   2.20440
    A4        1.83285  -0.00026  -0.00802  -0.00259  -0.01054   1.82231
    A5        1.89060   0.00017  -0.00001   0.00216   0.00202   1.89261
    A6        1.88065  -0.00022  -0.00100   0.00108   0.00001   1.88066
    A7        1.86157  -0.00058  -0.00088  -0.00754  -0.00844   1.85313
    A8        1.90069   0.00010   0.00155  -0.00086   0.00065   1.90133
    A9        2.08230   0.00068   0.00652   0.00663   0.01311   2.09541
   A10        2.01577  -0.00090  -0.01343  -0.01175  -0.02695   1.98882
   A11        1.92313   0.00037  -0.01509  -0.00072  -0.01843   1.90470
   A12        2.02149  -0.00086  -0.01395  -0.01100  -0.02669   1.99479
   A13        2.02020  -0.00095  -0.01519  -0.01172  -0.02865   1.99155
   A14        2.02992  -0.00097  -0.01372  -0.01256  -0.02801   2.00191
   A15        1.92493   0.00034  -0.01623  -0.00115  -0.02009   1.90484
   A16        3.04482  -0.00093  -0.00076  -0.00558  -0.00634   3.03847
   A17        3.07277  -0.00107  -0.00131  -0.00641  -0.00764   3.06513
   A18        3.05955  -0.00131  -0.00064  -0.00509  -0.00482   3.05473
   A19        3.14985  -0.00035  -0.00067  -0.00153  -0.00218   3.14767
   A20        3.19100   0.00019   0.00006   0.00132   0.00134   3.19235
    D1       -0.19177   0.00015   0.01986  -0.00782   0.01193  -0.17983
    D2        1.80120  -0.00013   0.01596  -0.01047   0.00551   1.80671
    D3       -2.22253   0.00013   0.02421  -0.00939   0.01477  -2.20775
    D4        2.57849   0.00003  -0.02754   0.01490  -0.01266   2.56583
    D5       -1.71174  -0.00025  -0.03144   0.01224  -0.01908  -1.73082
    D6        0.54773   0.00001  -0.02319   0.01333  -0.00982   0.53791
    D7        2.03799  -0.00050  -0.03616  -0.00879  -0.04442   1.99357
    D8       -0.29266   0.00016   0.02131   0.01491   0.03552  -0.25714
    D9        0.05541  -0.00026  -0.02650  -0.00391  -0.02973   0.02568
   D10       -2.27524   0.00040   0.03096   0.01980   0.05021  -2.22502
   D11       -2.08815  -0.00024  -0.03252  -0.00051  -0.03239  -2.12054
   D12        1.86438   0.00042   0.02495   0.02320   0.04755   1.91194
   D13       -2.46646   0.00029   0.00350  -0.00024   0.00323  -2.46323
   D14       -0.48725  -0.00007  -0.00561  -0.00315  -0.00875  -0.49600
   D15        1.65364  -0.00026  -0.00054  -0.00924  -0.00975   1.64388
   D16        1.75479   0.00079   0.02927   0.01639   0.04375   1.79855
   D17       -2.22618  -0.00079  -0.03260  -0.01198  -0.04267  -2.26884
         Item               Value     Threshold  Converged?
 Maximum Force            0.002057     0.000015     NO 
 RMS     Force            0.000798     0.000010     NO 
 Maximum Displacement     0.059217     0.000060     NO 
 RMS     Displacement     0.024413     0.000040     NO 
 Predicted change in Energy=-2.827789D-04
 GradGradGradGradGradGradGradGradGradGradGradGradGradGradGradGradGradGrad

                          Input orientation:                          
 ---------------------------------------------------------------------
 Center     Atomic     Atomic              Coordinates (Angstroms)
 Number     Number      Type              X           Y           Z
 ---------------------------------------------------------------------
    1          8             0       -0.364639    2.266752   -0.190521
    2          8             0        0.043595   -0.089749    0.559327
    3          8             0       -2.034370   -1.385206   -0.263609
    4          8             0        2.360028   -0.833453   -0.296044
    5          1             0       -0.624111    2.992717    0.400004
    6          1             0       -0.017722    2.688917   -0.992647
    7          1             0        0.051182   -0.052153    1.535848
    8          1             0       -0.085557    0.914204    0.258690
    9          1             0       -2.681260   -0.846118   -0.763078
   10          1             0       -1.227865   -0.840248    0.109556
   11          1             0       -2.509299   -1.913962    0.409783
   12          1             0        1.428823   -0.574998    0.097713
   13          1             0        3.119641   -0.459000    0.194936
   14          1             0        2.499630   -1.794122   -0.419024
 ---------------------------------------------------------------------
                    Distance matrix (angstroms):
                    1          2          3          4          5
     1  O    0.000000
     2  O    2.506397   0.000000
     3  O    4.016235   2.583288   0.000000
     4  O    4.128706   2.578879   4.429020   0.000000
     5  H    0.971119   3.157976   4.647088   4.901953   0.000000
     6  H    0.970557   3.183296   4.604004   4.306512   1.549025
     7  H    2.920715   0.977273   3.060164   3.049103   3.319246
     8  H    1.452262   1.055928   3.059078   3.056619   2.151796
     9  H    3.922309   3.121808   0.979056   5.062890   4.507912
    10  H    3.238619   1.543423   1.042441   3.610752   3.891079
    11  H    4.736908   3.141240   0.979080   5.037463   5.256380
    12  H    3.372703   1.538639   3.575011   1.043545   4.127288
    13  H    4.440553   3.119485   5.256611   0.978923   5.096281
    14  H    4.974630   3.145499   4.555055   0.978518   5.774287
                    6          7          8          9         10
     6  H    0.000000
     7  H    3.729812   0.000000
     8  H    2.172569   1.607381   0.000000
     9  H    4.432111   3.658097   3.298547   0.000000
    10  H    3.890283   2.071561   2.098859   1.695252   0.000000
    11  H    5.418604   3.360122   3.727718   1.595451   1.698550
    12  H    3.732897   2.059003   2.130019   4.207998   2.669923
    13  H    4.600303   3.373279   3.487556   5.892207   4.365026
    14  H    5.173369   3.584812   3.804933   5.278134   3.883747
                   11         12         13         14
    11  H    0.000000
    12  H    4.171214   0.000000
    13  H    5.817907   1.697578   0.000000
    14  H    5.078450   1.702912   1.594965   0.000000
 Stoichiometry    H10O4(2+)
 Framework group  C1[X(H10O4)]
 Deg. of freedom    36
 Full point group                 C1
 Largest Abelian subgroup         C1      NOp   1
 Largest concise Abelian subgroup C1      NOp   1
                         Standard orientation:                         
 ---------------------------------------------------------------------
 Center     Atomic     Atomic              Coordinates (Angstroms)
 Number     Number      Type              X           Y           Z
 ---------------------------------------------------------------------
    1          8             0       -0.407878    2.264295   -0.177161
    2          8             0        0.044654   -0.083030    0.576034
    3          8             0       -2.006832   -1.419242   -0.248172
    4          8             0        2.376159   -0.782951   -0.275325
    5          1             0       -0.682101    2.985810    0.412151
    6          1             0       -0.068059    2.692136   -0.979318
    7          1             0        0.050174   -0.044161    1.552518
    8          1             0       -0.103405    0.917899    0.274031
    9          1             0       -2.663302   -0.893299   -0.749154
   10          1             0       -1.211490   -0.858411    0.125436
   11          1             0       -2.472410   -1.956269    0.425205
   12          1             0        1.439608   -0.542031    0.116868
   13          1             0        3.127742   -0.393361    0.216237
   14          1             0        2.534415   -1.740894   -0.396975
 ---------------------------------------------------------------------
 Rotational constants (GHZ):      3.1042425      2.4805628      1.4806864
 Standard basis: Aug-CC-pVDZ (5D, 7F)
 There are   182 symmetry adapted basis functions of A   symmetry.
 Integral buffers will be    131072 words long.
 Raffenetti 1 integral format.
 Two-electron integral symmetry is turned on.
   182 basis functions,   282 primitive gaussians,   190 cartesian basis functions
    20 alpha electrons       20 beta electrons
       nuclear repulsion energy       153.8451277474 Hartrees.
 NAtoms=   14 NActive=   14 NUniq=   14 SFac= 7.50D-01 NAtFMM=   80 NAOKFM=F Big=F
 One-electron integrals computed using PRISM.
 NBasis=   182 RedAO= T  NBF=   182
 NBsUse=   182 1.00D-06 NBFU=   182
 Initial guess read from the read-write file:
 Initial guess orbital symmetries:
       Occupied  (A) (A) (A) (A) (A) (A) (A) (A) (A) (A) (A) (A)
                 (A) (A) (A) (A) (A) (A) (A) (A)
       Virtual   (A) (A) (A) (A) (A) (A) (A) (A) (A) (A) (A) (A)
                 (A) (A) (A) (A) (A) (A) (A) (A) (A) (A) (A) (A)
                 (A) (A) (A) (A) (A) (A) (A) (A) (A) (A) (A) (A)
                 (A) (A) (A) (A) (A) (A) (A) (A) (A) (A) (A) (A)
                 (A) (A) (A) (A) (A) (A) (A) (A) (A) (A) (A) (A)
                 (A) (A) (A) (A) (A) (A) (A) (A) (A) (A) (A) (A)
                 (A) (A) (A) (A) (A) (A) (A) (A) (A) (A) (A) (A)
                 (A) (A) (A) (A) (A) (A) (A) (A) (A) (A) (A) (A)
                 (A) (A) (A) (A) (A) (A) (A) (A) (A) (A) (A) (A)
                 (A) (A) (A) (A) (A) (A) (A) (A) (A) (A) (A) (A)
                 (A) (A) (A) (A) (A) (A) (A) (A) (A) (A) (A) (A)
                 (A) (A) (A) (A) (A) (A) (A) (A) (A) (A) (A) (A)
                 (A) (A) (A) (A) (A) (A) (A) (A) (A) (A) (A) (A)
                 (A) (A) (A) (A) (A) (A)
 Harris functional with IExCor=  205 diagonalized for initial guess.
 ExpMin= 2.97D-02 ExpMax= 1.17D+04 ExpMxC= 4.01D+02 IAcc=3 IRadAn=         5 AccDes= 0.00D+00
 HarFok:  IExCor= 205 AccDes= 0.00D+00 IRadAn=         5 IDoV=1
 ScaDFX=  1.000000  1.000000  1.000000  1.000000
 Requested convergence on RMS density matrix=1.00D-08 within 128 cycles.
 Requested convergence on MAX density matrix=1.00D-06.
 Requested convergence on             energy=1.00D-06.
 No special actions if energy rises.
 Keep R1 integrals in memory in canonical form, NReq=   169079188.
 SCF Done:  E(RHF) =  -304.693308691     A.U. after    9 cycles
             Convg  =    0.5795D-08             -V/T =  2.0017
             S**2   =   0.0000
 ExpMin= 2.97D-02 ExpMax= 1.17D+04 ExpMxC= 4.01D+02 IAcc=3 IRadAn=         5 AccDes= 0.00D+00
 HarFok:  IExCor= 205 AccDes= 0.00D+00 IRadAn=         5 IDoV=1
 ScaDFX=  1.000000  1.000000  1.000000  1.000000
 Range of M.O.s used for correlation:     5   182
 NBasis=   182 NAE=    20 NBE=    20 NFC=     4 NFV=     0
 NROrb=    178 NOA=    16 NOB=    16 NVA=   162 NVB=   162

 **** Warning!!: The largest alpha MO coefficient is  0.17004525D+02

 Fully direct method using O(ONN) memory.
 JobTyp=1 Pass  1:  I=   5 to  20 NPSUse=  4 ParTrn=T ParDer=T DoDerP=T.
 Spin components of T(2) and E(2):
     alpha-alpha T2 =       0.2991237774D-01 E2=     -0.1131573849D+00
     alpha-beta  T2 =       0.1688636820D+00 E2=     -0.6601755478D+00
     beta-beta   T2 =       0.2991237774D-01 E2=     -0.1131573849D+00
 ANorm=    0.1108462195D+01
 E2 =    -0.8864903176D+00 EUMP2 =    -0.30557979900884D+03
 DoAtom=TTTTTTTTTTTTTT
          Differentiating once with respect to electric field.
                with respect to dipole field.
          Differentiating once with respect to nuclear coordinates.
          Store integrals in memory, NReq=   165451101.
          There are   1 degrees of freedom in the 1st order CPHF.
     1 vectors were produced by pass  0.
 AX will form   1 AO Fock derivatives at one time.
     1 vectors were produced by pass  1.
     1 vectors were produced by pass  2.
     1 vectors were produced by pass  3.
     1 vectors were produced by pass  4.
     1 vectors were produced by pass  5.
     1 vectors were produced by pass  6.
     1 vectors were produced by pass  7.
     1 vectors were produced by pass  8.
     1 vectors were produced by pass  9.
     1 vectors were produced by pass 10.
     1 vectors were produced by pass 11.
 Inv2:  IOpt= 1 Iter= 1 AM= 2.88D-16 Conv= 1.00D-12.
 Inverted reduced A of dimension   12 with in-core refinement.
 End of Minotr Frequency-dependent properties file   721 does not exist.
 ***** Axes restored to original set *****
 -------------------------------------------------------------------
 Center     Atomic                   Forces (Hartrees/Bohr)
 Number     Number              X              Y              Z
 -------------------------------------------------------------------
    1          8          -0.000797910    0.001883275   -0.000876462
    2          8          -0.000325414    0.002217938    0.000184279
    3          8           0.000504846    0.000137402   -0.000169453
    4          8          -0.000437534    0.000222630    0.000084769
    5          1          -0.000029151   -0.000090046    0.000190445
    6          1           0.000144391   -0.000184239   -0.000124957
    7          1           0.000053431   -0.000141756   -0.000002688
    8          1           0.000974364   -0.002919819    0.001086933
    9          1          -0.000136698    0.000583217   -0.000768176
   10          1          -0.002155512   -0.000332762    0.000007497
   11          1           0.000036075   -0.000704430    0.000635348
   12          1           0.002108132   -0.000740689    0.000106408
   13          1           0.000492654    0.000941326    0.000202061
   14          1          -0.000431674   -0.000872048   -0.000556004
 -------------------------------------------------------------------
 Cartesian Forces:  Max     0.002919819 RMS     0.000917981

 GradGradGradGradGradGradGradGradGradGradGradGradGradGradGradGradGradGrad
 Berny optimization.
 Internal  Forces:  Max     0.001879560 RMS     0.000629505
 Search for a local minimum.
 Step number   3 out of a maximum of  60
 All quantities printed in internal units (Hartrees-Bohrs-Radians)
 Update second derivatives using D2CorX and points  1  2  3
 Trust test= 1.11D+00 RLast= 1.48D-01 DXMaxT set to 4.44D-01
     Eigenvalues ---    0.00229   0.00230   0.00230   0.00344   0.00548
     Eigenvalues ---    0.01595   0.03966   0.04157   0.05857   0.07046
     Eigenvalues ---    0.10764   0.10925   0.12169   0.12720   0.14135
     Eigenvalues ---    0.15590   0.16000   0.16000   0.16000   0.16002
     Eigenvalues ---    0.17037   0.23062   0.24121   0.24621   0.24719
     Eigenvalues ---    0.25183   0.36078   0.39680   0.39975   0.51634
     Eigenvalues ---    0.51663   0.51724   0.51903   0.53039   0.53212
     Eigenvalues ---    0.557241000.000001000.000001000.000001000.00000
     Eigenvalues --- 1000.000001000.000001000.000001000.000001000.00000
     Eigenvalues --- 1000.000001000.000001000.000001000.000001000.00000
 RFO step:  Lambda=-1.41007158D-04.
 Quartic linear search produced a step of  0.24846.
 Iteration  1 RMS(Cart)=  0.01451579 RMS(Int)=  0.00031661
 Iteration  2 RMS(Cart)=  0.00010938 RMS(Int)=  0.00015379
 Iteration  3 RMS(Cart)=  0.00000005 RMS(Int)=  0.00015379
 Variable       Old X    -DE/DX   Delta X   Delta X   Delta X     New X
                                 (Linear)    (Quad)   (Total)
    R1        1.83515   0.00006   0.00022  -0.00025  -0.00002   1.83512
    R2        1.83409   0.00007   0.00026  -0.00025   0.00002   1.83410
    R3        2.74438   0.00188   0.00681   0.01696   0.02378   2.76815
    R4        1.84678  -0.00001   0.00004  -0.00012  -0.00008   1.84670
    R5        1.99541  -0.00136  -0.00296  -0.00598  -0.00895   1.98647
    R6        2.91665   0.00168   0.00691   0.01767   0.02457   2.94122
    R7        2.90761   0.00175   0.00713   0.01824   0.02537   2.93298
    R8        1.85015   0.00080   0.00066   0.00103   0.00168   1.85183
    R9        1.96993  -0.00021  -0.00176  -0.00259  -0.00434   1.96558
   R10        1.85019   0.00080   0.00059   0.00106   0.00164   1.85184
   R11        1.97201  -0.00031  -0.00166  -0.00283  -0.00449   1.96753
   R12        1.84990   0.00084   0.00064   0.00113   0.00176   1.85166
   R13        1.84913   0.00086   0.00067   0.00112   0.00179   1.85092
    A1        1.84720   0.00023  -0.00238  -0.00222  -0.00466   1.84254
    A2        2.16456  -0.00016  -0.00006  -0.00114  -0.00127   2.16329
    A3        2.20440  -0.00025   0.00042  -0.00117  -0.00082   2.20359
    A4        1.82231   0.00023  -0.00262   0.00033  -0.00227   1.82003
    A5        1.89261   0.00008   0.00050   0.00164   0.00209   1.89470
    A6        1.88066  -0.00022   0.00000   0.00079   0.00074   1.88140
    A7        1.85313  -0.00058  -0.00210  -0.00635  -0.00843   1.84469
    A8        1.90133  -0.00007   0.00016  -0.00207  -0.00190   1.89943
    A9        2.09541   0.00053   0.00326   0.00506   0.00829   2.10369
   A10        1.98882  -0.00031  -0.00670  -0.00178  -0.00879   1.98003
   A11        1.90470   0.00036  -0.00458   0.00320  -0.00186   1.90284
   A12        1.99479  -0.00024  -0.00663  -0.00157  -0.00851   1.98628
   A13        1.99155   0.00006  -0.00712  -0.00050  -0.00791   1.98364
   A14        2.00191  -0.00016  -0.00696  -0.00146  -0.00871   1.99320
   A15        1.90484   0.00078  -0.00499   0.00495  -0.00051   1.90433
   A16        3.03847  -0.00118  -0.00158  -0.00524  -0.00681   3.03166
   A17        3.06513  -0.00095  -0.00190  -0.00461  -0.00650   3.05862
   A18        3.05473  -0.00069  -0.00120  -0.00456  -0.00560   3.04913
   A19        3.14767  -0.00027  -0.00054  -0.00134  -0.00188   3.14579
   A20        3.19235   0.00023   0.00033   0.00123   0.00155   3.19389
    D1       -0.17983   0.00012   0.00296   0.00588   0.00882  -0.17102
    D2        1.80671  -0.00004   0.00137   0.00472   0.00609   1.81280
    D3       -2.20775  -0.00005   0.00367   0.00419   0.00786  -2.19990
    D4        2.56583   0.00009  -0.00315  -0.00657  -0.00972   2.55610
    D5       -1.73082  -0.00007  -0.00474  -0.00773  -0.01245  -1.74327
    D6        0.53791  -0.00008  -0.00244  -0.00826  -0.01068   0.52722
    D7        1.99357   0.00018  -0.01104   0.00028  -0.01068   1.98289
    D8       -0.25714  -0.00017   0.00883  -0.00352   0.00515  -0.25199
    D9        0.02568   0.00003  -0.00739   0.00152  -0.00574   0.01995
   D10       -2.22502  -0.00032   0.01248  -0.00228   0.01010  -2.21493
   D11       -2.12054   0.00034  -0.00805   0.00674  -0.00117  -2.12171
   D12        1.91194  -0.00001   0.01182   0.00294   0.01466   1.92660
   D13       -2.46323   0.00004   0.00080  -0.00806  -0.00726  -2.47049
   D14       -0.49600   0.00017  -0.00217  -0.00830  -0.01047  -0.50647
   D15        1.64388  -0.00029  -0.00242  -0.01509  -0.01752   1.62636
   D16        1.79855  -0.00053   0.01087  -0.00808   0.00245   1.80100
   D17       -2.26884   0.00050  -0.01060  -0.00279  -0.01306  -2.28190
         Item               Value     Threshold  Converged?
 Maximum Force            0.001880     0.000015     NO 
 RMS     Force            0.000630     0.000010     NO 
 Maximum Displacement     0.036156     0.000060     NO 
 RMS     Displacement     0.014526     0.000040     NO 
 Predicted change in Energy=-9.020934D-05
 GradGradGradGradGradGradGradGradGradGradGradGradGradGradGradGradGradGrad

                          Input orientation:                          
 ---------------------------------------------------------------------
 Center     Atomic     Atomic              Coordinates (Angstroms)
 Number     Number      Type              X           Y           Z
 ---------------------------------------------------------------------
    1          8             0       -0.373667    2.263108   -0.193515
    2          8             0        0.046833   -0.096943    0.563569
    3          8             0       -2.046415   -1.382571   -0.268627
    4          8             0        2.373809   -0.832780   -0.301927
    5          1             0       -0.629280    2.990828    0.396511
    6          1             0       -0.022759    2.686961   -0.993022
    7          1             0        0.054765   -0.057151    1.539955
    8          1             0       -0.082912    0.902387    0.264378
    9          1             0       -2.688651   -0.830633   -0.761774
   10          1             0       -1.241050   -0.843184    0.108657
   11          1             0       -2.526427   -1.902686    0.409142
   12          1             0        1.445480   -0.581911    0.097205
   13          1             0        3.129587   -0.446097    0.187351
   14          1             0        2.518763   -1.795748   -0.406969
 ---------------------------------------------------------------------
                    Distance matrix (angstroms):
                    1          2          3          4          5
     1  O    0.000000
     2  O    2.513928   0.000000
     3  O    4.011820   2.593661   0.000000
     4  O    4.140639   2.589470   4.454409   0.000000
     5  H    0.971106   3.165339   4.645137   4.911857   0.000000
     6  H    0.970567   3.190288   4.602285   4.313899   1.546288
     7  H    2.927810   0.977229   3.072893   3.061388   3.326493
     8  H    1.464843   1.051194   3.059489   3.060552   2.162768
     9  H    3.905547   3.126933   0.979947   5.083303   4.492905
    10  H    3.239245   1.556427   1.040141   3.638117   3.893169
    11  H    4.727728   3.147416   0.979950   5.065830   5.248410
    12  H    3.389387   1.552064   3.601141   1.041171   4.142304
    13  H    4.444956   3.125191   5.279763   0.979856   5.097576
    14  H    4.988589   3.152509   4.585925   0.979465   5.785072
                    6          7          8          9         10
     6  H    0.000000
     7  H    3.735255   0.000000
     8  H    2.183891   1.602113   0.000000
     9  H    4.419720   3.663682   3.293360   0.000000
    10  H    3.893565   2.084611   2.100607   1.689187   0.000000
    11  H    5.412881   3.368575   3.722923   1.595826   1.692640
    12  H    3.745643   2.071470   2.137070   4.229745   2.699229
    13  H    4.598545   3.381619   3.484894   5.907673   4.389344
    14  H    5.186277   3.589501   3.807800   5.307965   3.912728
                   11         12         13         14
    11  H    0.000000
    12  H    4.197356   0.000000
    13  H    5.844771   1.691978   0.000000
    14  H    5.111890   1.696917   1.596208   0.000000
 Stoichiometry    H10O4(2+)
 Framework group  C1[X(H10O4)]
 Deg. of freedom    36
 Full point group                 C1
 Largest Abelian subgroup         C1      NOp   1
 Largest concise Abelian subgroup C1      NOp   1
                         Standard orientation:                         
 ---------------------------------------------------------------------
 Center     Atomic     Atomic              Coordinates (Angstroms)
 Number     Number      Type              X           Y           Z
 ---------------------------------------------------------------------
    1          8             0       -0.431786    2.258901   -0.177483
    2          8             0        0.049359   -0.088810    0.581850
    3          8             0       -2.008495   -1.429342   -0.251991
    4          8             0        2.395872   -0.764125   -0.280228
    5          1             0       -0.707090    2.980099    0.411693
    6          1             0       -0.091083    2.691230   -0.976866
    7          1             0        0.055022   -0.048140    1.558216
    8          1             0       -0.106108    0.906574    0.281767
    9          1             0       -2.664330   -0.894740   -0.746336
   10          1             0       -1.217990   -0.868806    0.125892
   11          1             0       -2.475587   -1.961362    0.425565
   12          1             0        1.460798   -0.537349    0.117571
   13          1             0        3.140661   -0.357459    0.209701
   14          1             0        2.566100   -1.723044   -0.384385
 ---------------------------------------------------------------------
 Rotational constants (GHZ):      3.1101591      2.4504225      1.4727903
 Standard basis: Aug-CC-pVDZ (5D, 7F)
 There are   182 symmetry adapted basis functions of A   symmetry.
 Integral buffers will be    131072 words long.
 Raffenetti 1 integral format.
 Two-electron integral symmetry is turned on.
   182 basis functions,   282 primitive gaussians,   190 cartesian basis functions
    20 alpha electrons       20 beta electrons
       nuclear repulsion energy       153.5046894774 Hartrees.
 NAtoms=   14 NActive=   14 NUniq=   14 SFac= 7.50D-01 NAtFMM=   80 NAOKFM=F Big=F
 One-electron integrals computed using PRISM.
 NBasis=   182 RedAO= T  NBF=   182
 NBsUse=   182 1.00D-06 NBFU=   182
 Initial guess read from the read-write file:
 Initial guess orbital symmetries:
       Occupied  (A) (A) (A) (A) (A) (A) (A) (A) (A) (A) (A) (A)
                 (A) (A) (A) (A) (A) (A) (A) (A)
       Virtual   (A) (A) (A) (A) (A) (A) (A) (A) (A) (A) (A) (A)
                 (A) (A) (A) (A) (A) (A) (A) (A) (A) (A) (A) (A)
                 (A) (A) (A) (A) (A) (A) (A) (A) (A) (A) (A) (A)
                 (A) (A) (A) (A) (A) (A) (A) (A) (A) (A) (A) (A)
                 (A) (A) (A) (A) (A) (A) (A) (A) (A) (A) (A) (A)
                 (A) (A) (A) (A) (A) (A) (A) (A) (A) (A) (A) (A)
                 (A) (A) (A) (A) (A) (A) (A) (A) (A) (A) (A) (A)
                 (A) (A) (A) (A) (A) (A) (A) (A) (A) (A) (A) (A)
                 (A) (A) (A) (A) (A) (A) (A) (A) (A) (A) (A) (A)
                 (A) (A) (A) (A) (A) (A) (A) (A) (A) (A) (A) (A)
                 (A) (A) (A) (A) (A) (A) (A) (A) (A) (A) (A) (A)
                 (A) (A) (A) (A) (A) (A) (A) (A) (A) (A) (A) (A)
                 (A) (A) (A) (A) (A) (A) (A) (A) (A) (A) (A) (A)
                 (A) (A) (A) (A) (A) (A)
 Harris functional with IExCor=  205 diagonalized for initial guess.
 ExpMin= 2.97D-02 ExpMax= 1.17D+04 ExpMxC= 4.01D+02 IAcc=3 IRadAn=         5 AccDes= 0.00D+00
 HarFok:  IExCor= 205 AccDes= 0.00D+00 IRadAn=         5 IDoV=1
 ScaDFX=  1.000000  1.000000  1.000000  1.000000
 Requested convergence on RMS density matrix=1.00D-08 within 128 cycles.
 Requested convergence on MAX density matrix=1.00D-06.
 Requested convergence on             energy=1.00D-06.
 No special actions if energy rises.
 Keep R1 integrals in memory in canonical form, NReq=   169079188.
 SCF Done:  E(RHF) =  -304.693690581     A.U. after    9 cycles
             Convg  =    0.3126D-08             -V/T =  2.0017
             S**2   =   0.0000
 ExpMin= 2.97D-02 ExpMax= 1.17D+04 ExpMxC= 4.01D+02 IAcc=3 IRadAn=         5 AccDes= 0.00D+00
 HarFok:  IExCor= 205 AccDes= 0.00D+00 IRadAn=         5 IDoV=1
 ScaDFX=  1.000000  1.000000  1.000000  1.000000
 Range of M.O.s used for correlation:     5   182
 NBasis=   182 NAE=    20 NBE=    20 NFC=     4 NFV=     0
 NROrb=    178 NOA=    16 NOB=    16 NVA=   162 NVB=   162

 **** Warning!!: The largest alpha MO coefficient is  0.17189229D+02

 Fully direct method using O(ONN) memory.
 JobTyp=1 Pass  1:  I=   5 to  20 NPSUse=  4 ParTrn=T ParDer=T DoDerP=T.
 Spin components of T(2) and E(2):
     alpha-alpha T2 =       0.2989820347D-01 E2=     -0.1130670435D+00
     alpha-beta  T2 =       0.1689240663D+00 E2=     -0.6601167168D+00
     beta-beta   T2 =       0.2989820347D-01 E2=     -0.1130670435D+00
 ANorm=    0.1108476645D+01
 E2 =    -0.8862508037D+00 EUMP2 =    -0.30557994138468D+03
 DoAtom=TTTTTTTTTTTTTT
          Differentiating once with respect to electric field.
                with respect to dipole field.
          Differentiating once with respect to nuclear coordinates.
          Store integrals in memory, NReq=   165451101.
          There are   1 degrees of freedom in the 1st order CPHF.
     1 vectors were produced by pass  0.
 AX will form   1 AO Fock derivatives at one time.
     1 vectors were produced by pass  1.
     1 vectors were produced by pass  2.
     1 vectors were produced by pass  3.
     1 vectors were produced by pass  4.
     1 vectors were produced by pass  5.
     1 vectors were produced by pass  6.
     1 vectors were produced by pass  7.
     1 vectors were produced by pass  8.
     1 vectors were produced by pass  9.
     1 vectors were produced by pass 10.
     1 vectors were produced by pass 11.
 Inv2:  IOpt= 1 Iter= 1 AM= 2.99D-16 Conv= 1.00D-12.
 Inverted reduced A of dimension   12 with in-core refinement.
 End of Minotr Frequency-dependent properties file   721 does not exist.
 ***** Axes restored to original set *****
 -------------------------------------------------------------------
 Center     Atomic                   Forces (Hartrees/Bohr)
 Number     Number              X              Y              Z
 -------------------------------------------------------------------
    1          8          -0.000639265    0.001928611   -0.000823239
    2          8          -0.000295997    0.001838535    0.000286210
    3          8          -0.000001193    0.000780541    0.000427837
    4          8          -0.000423634   -0.000217354    0.000899640
    5          1          -0.000127757   -0.000182087    0.000318636
    6          1           0.000126961   -0.000332452   -0.000221685
    7          1           0.000045134   -0.000297289   -0.000056417
    8          1           0.000927441   -0.002452294    0.000786122
    9          1           0.000087857    0.000070250   -0.000615772
   10          1          -0.001603673   -0.000473656   -0.000106076
   11          1           0.000162676   -0.000582181    0.000095172
   12          1           0.001759915   -0.000388083   -0.000138146
   13          1           0.000207535    0.000563180   -0.000273964
   14          1          -0.000226000   -0.000255721   -0.000578320
 -------------------------------------------------------------------
 Cartesian Forces:  Max     0.002452294 RMS     0.000784116

 GradGradGradGradGradGradGradGradGradGradGradGradGradGradGradGradGradGrad
 Berny optimization.
 Internal  Forces:  Max     0.001667468 RMS     0.000509272
 Search for a local minimum.
 Step number   4 out of a maximum of  60
 All quantities printed in internal units (Hartrees-Bohrs-Radians)
 Update second derivatives using D2CorX and points  1  2  3  4
 Trust test= 1.58D+00 RLast= 6.49D-02 DXMaxT set to 4.44D-01
     Eigenvalues ---    0.00226   0.00230   0.00230   0.00344   0.00577
     Eigenvalues ---    0.01648   0.03135   0.04068   0.05851   0.06882
     Eigenvalues ---    0.07201   0.10786   0.11999   0.12415   0.14129
     Eigenvalues ---    0.15997   0.15999   0.16000   0.16001   0.16457
     Eigenvalues ---    0.16771   0.22494   0.24197   0.24593   0.24759
     Eigenvalues ---    0.24876   0.35696   0.39678   0.39845   0.51633
     Eigenvalues ---    0.51667   0.51724   0.51897   0.53139   0.53228
     Eigenvalues ---    0.553101000.000001000.000001000.000001000.00000
     Eigenvalues --- 1000.000001000.000001000.000001000.000001000.00000
     Eigenvalues --- 1000.000001000.000001000.000001000.000001000.00000
 RFO step:  Lambda=-1.41352668D-04.
 Quartic linear search produced a step of  1.79248.
 Iteration  1 RMS(Cart)=  0.03416170 RMS(Int)=  0.00103687
 Iteration  2 RMS(Cart)=  0.00056108 RMS(Int)=  0.00010392
 Iteration  3 RMS(Cart)=  0.00000101 RMS(Int)=  0.00010392
 Iteration  4 RMS(Cart)=  0.00000000 RMS(Int)=  0.00010392
 Variable       Old X    -DE/DX   Delta X   Delta X   Delta X     New X
                                 (Linear)    (Quad)   (Total)
    R1        1.83512   0.00009  -0.00004   0.00019   0.00015   1.83527
    R2        1.83410   0.00008   0.00003   0.00012   0.00015   1.83425
    R3        2.76815   0.00167   0.04262   0.01807   0.06069   2.82884
    R4        1.84670  -0.00007  -0.00015  -0.00034  -0.00049   1.84621
    R5        1.98647  -0.00104  -0.01604  -0.00521  -0.02125   1.96522
[...]
    7          1          -0.000000196    0.000000131    0.000000116
    8          1          -0.000000547   -0.000000091    0.000000815
    9          1          -0.000000092    0.000000003    0.000000005
   10          1          -0.000000255   -0.000000039    0.000000023
   11          1          -0.000000053   -0.000000036   -0.000000022
   12          1           0.000000226    0.000000651    0.000000642
   13          1           0.000000079    0.000000034    0.000000190
   14          1          -0.000000014   -0.000000144    0.000000004
 -------------------------------------------------------------------
 Cartesian Forces:  Max     0.000000859 RMS     0.000000320

 GradGradGradGradGradGradGradGradGradGradGradGradGradGradGradGradGradGrad
 Berny optimization.
 Internal  Forces:  Max     0.000000665 RMS     0.000000142
 Search for a local minimum.
 Step number   1 out of a maximum of   2
 All quantities printed in internal units (Hartrees-Bohrs-Radians)
 Second derivative matrix not updated -- analytic derivatives used.
     Eigenvalues ---    0.00009   0.00018   0.00097   0.00115   0.00287
     Eigenvalues ---    0.00799   0.00991   0.01073   0.01371   0.01528
     Eigenvalues ---    0.01700   0.02348   0.02563   0.02717   0.03066
     Eigenvalues ---    0.03293   0.03453   0.03730   0.04282   0.04680
     Eigenvalues ---    0.05626   0.10699   0.10868   0.11011   0.12278
     Eigenvalues ---    0.12388   0.33973   0.34235   0.35202   0.48206
     Eigenvalues ---    0.48372   0.48484   0.48620   0.49566   0.51397
     Eigenvalues ---    0.523201000.000001000.000001000.000001000.00000
     Eigenvalues --- 1000.000001000.000001000.000001000.000001000.00000
     Eigenvalues --- 1000.000001000.000001000.000001000.000001000.00000
 Angle between quadratic step and forces=  81.13 degrees.
 Linear search not attempted -- first point.
 Iteration  1 RMS(Cart)=  0.00002206 RMS(Int)=  0.00000000
 Iteration  2 RMS(Cart)=  0.00000001 RMS(Int)=  0.00000000
 Variable       Old X    -DE/DX   Delta X   Delta X   Delta X     New X
                                 (Linear)    (Quad)   (Total)
    R1        1.83543   0.00000   0.00000   0.00000   0.00000   1.83543
    R2        1.83440   0.00000   0.00000   0.00000   0.00000   1.83440
    R3        2.89113   0.00000   0.00000   0.00001   0.00001   2.89114
    R4        1.84560   0.00000   0.00000   0.00000   0.00000   1.84560
    R5        1.95077   0.00000   0.00000   0.00000   0.00000   1.95077
    R6        3.03744   0.00000   0.00000   0.00002   0.00002   3.03746
    R7        3.00820   0.00000   0.00000  -0.00001  -0.00001   3.00819
    R8        1.85249   0.00000   0.00000   0.00000   0.00000   1.85249
    R9        1.94525   0.00000   0.00000   0.00000   0.00000   1.94525
   R10        1.85252   0.00000   0.00000   0.00000   0.00000   1.85252
   R11        1.95047   0.00000   0.00000   0.00000   0.00000   1.95048
   R12        1.85210   0.00000   0.00000   0.00000   0.00000   1.85210
   R13        1.85144   0.00000   0.00000   0.00000   0.00000   1.85144
    A1        1.83356   0.00000   0.00000   0.00000   0.00000   1.83356
    A2        2.14037   0.00000   0.00000  -0.00001  -0.00001   2.14037
    A3        2.18383   0.00000   0.00000   0.00000   0.00000   2.18383
    A4        1.82956   0.00000   0.00000   0.00000   0.00000   1.82956
    A5        1.90471   0.00000   0.00000  -0.00001  -0.00001   1.90471
    A6        1.88502   0.00000   0.00000   0.00000   0.00000   1.88502
    A7        1.75782   0.00000   0.00000   0.00000   0.00000   1.75782
    A8        1.90335   0.00000   0.00000   0.00000   0.00000   1.90335
    A9        2.15556   0.00000   0.00000   0.00001   0.00001   2.15557
   A10        1.97887   0.00000   0.00000   0.00000   0.00000   1.97887
   A11        1.91659   0.00000   0.00000   0.00000   0.00000   1.91660
   A12        1.98952   0.00000   0.00000   0.00000   0.00000   1.98953
   A13        1.98832   0.00000   0.00000   0.00000   0.00000   1.98832
   A14        1.99422   0.00000   0.00000   0.00000   0.00000   1.99421
   A15        1.91621   0.00000   0.00000   0.00000   0.00000   1.91621
   A16        3.01417   0.00000   0.00000   0.00000   0.00000   3.01416
   A17        2.96552   0.00000   0.00000   0.00000   0.00000   2.96552
   A18        3.03994   0.00000   0.00000   0.00000   0.00000   3.03993
   A19        3.13554   0.00000   0.00000  -0.00003  -0.00003   3.13551
   A20        3.29799   0.00000   0.00000   0.00000   0.00000   3.29799
    D1       -0.08966   0.00000   0.00000  -0.00002  -0.00002  -0.08968
    D2        1.86012   0.00000   0.00000  -0.00002  -0.00002   1.86010
    D3       -2.16371   0.00000   0.00000  -0.00002  -0.00002  -2.16373
    D4        2.54949   0.00000   0.00000  -0.00004  -0.00004   2.54945
    D5       -1.78392   0.00000   0.00000  -0.00004  -0.00004  -1.78396
    D6        0.47543   0.00000   0.00000  -0.00004  -0.00004   0.47540
    D7        1.77940   0.00000   0.00000   0.00000   0.00000   1.77941
    D8       -0.48750   0.00000   0.00000   0.00000   0.00000  -0.48750
    D9       -0.15190   0.00000   0.00000   0.00001   0.00001  -0.15189
   D10       -2.41880   0.00000   0.00000   0.00001   0.00001  -2.41880
   D11       -2.24342   0.00000   0.00000   0.00001   0.00001  -2.24341
   D12        1.77286   0.00000   0.00000   0.00000   0.00000   1.77286
   D13       -2.64975   0.00000   0.00000  -0.00018  -0.00018  -2.64993
   D14       -0.67082   0.00000   0.00000  -0.00018  -0.00018  -0.67100
   D15        1.38311   0.00000   0.00000  -0.00018  -0.00018   1.38293
   D16        1.90415   0.00000   0.00000   0.00023   0.00023   1.90438
   D17       -2.15694   0.00000   0.00000   0.00022   0.00022  -2.15672
         Item               Value     Threshold  Converged?
 Maximum Force            0.000001     0.000015     YES
 RMS     Force            0.000000     0.000010     YES
 Maximum Displacement     0.000075     0.000060     NO 
 RMS     Displacement     0.000022     0.000040     YES
 Predicted change in Energy=-3.541323D-11
 GradGradGradGradGradGradGradGradGradGradGradGradGradGradGradGradGradGrad

 1\1\GINC-NODE84\Freq\RMP2-FC\Aug-CC-pVDZ\H10O4(2+)\CHINH\18-May-2010\0
 \\#N Geom=AllCheck Guess=Read SCRF=Check GenChk RMP2(FC)/Aug-CC-pVDZ F
 req\\Str 5\\2,1\O,-0.4915539899,2.1968051361,-0.2334867635\O,0.1048846
 445,-0.1349738634,0.6169181033\O,-2.0945132319,-1.2433148502,-0.309835
 018\O,2.4516165534,-0.8649074488,-0.2880014114\H,-0.7412480155,2.93761
 95002,0.3428893827\H,-0.1564177639,2.6106450977,-1.0451029206\H,0.1112
 777583,-0.0953802972,1.5927441415\H,-0.0412979799,0.8409686546,0.31390
 42784\H,-2.7427110138,-0.5914069681,-0.6501867913\H,-1.2691071169,-0.8
 093188758,0.126036054\H,-2.5495667436,-1.8971238283,0.2615440517\H,1.5
 426765831,-0.6190127712,0.1347165922\H,3.2190076762,-0.4287203231,0.13
 794134\H,2.6150276399,-1.8282991625,-0.3591460388\\Version=AM64L-G03Re
 vD.01\State=1-A\HF=-304.6960734\MP2=-305.5803098\RMSD=9.740e-10\RMSF=3
 .202e-07\ZeroPoint=0.1211899\Thermal=0.1315926\Dipole=0.243956,-1.1630
 548,0.6152854\DipoleDeriv=-0.5585997,0.1106918,-0.0470239,0.0983106,-0
 .8575735,0.1110016,-0.0536857,0.1486896,-0.5561728,-1.2236749,0.053804
 3,-0.0411517,0.0865558,-1.0482435,0.1282484,-0.0444804,0.0989652,-0.53
 12907,-0.7708566,-0.2257348,-0.1494781,-0.2297604,-0.4541779,-0.024017
 7,-0.209017,-0.0513215,-0.364122,-0.8596377,0.1769356,0.1302067,0.1616
 605,-0.4151973,-0.068941,0.1993443,-0.0985536,-0.3442574,0.3599321,-0.
 0235523,-0.0063114,-0.0200833,0.3076874,0.0487065,-0.0140868,0.08611,0
 .321504,0.3396884,0.036986,-0.0040063,0.0158374,0.2551191,-0.006743,0.
 0092006,-0.0400119,0.380271,0.2955162,0.0030009,0.0077439,0.0030678,0.
 2831933,-0.042744,0.0068249,-0.0114894,0.3862795,0.2861149,-0.2177254,
 0.0848816,-0.2171556,1.254603,-0.3400014,0.100233,-0.4064734,0.3310335
 ,0.4387167,-0.0690198,0.0708315,-0.0899966,0.3881047,-0.0445728,0.0813
 748,-0.0283966,0.4436017,1.1648586,0.4318687,0.2596632,0.4415861,0.473
 7792,0.1544877,0.3529263,0.1982544,0.3713186,0.3797311,0.0775544,-0.05
 67674,0.0966165,0.5229357,-0.0324792,-0.0765701,-0.0550176,0.3863687,1
 .3106551,-0.3982988,-0.271403,-0.3814465,0.3708402,0.0719058,-0.382475
 4,0.1175127,0.3777242,0.5113396,0.0921902,0.0322413,0.1187144,0.384418
 2,-0.0135871,0.048907,-0.0097577,0.3842156,0.3262163,-0.0487008,-0.009
 4264,-0.0839068,0.5345113,0.0587362,-0.0184953,0.0514897,0.4135261\Pol
 ar=36.7134086,-0.6096478,34.6798786,0.3531761,-0.7013817,28.5467043\PG
 =C01 [X(H10O4)]\NImag=0\\0.11634967,-0.04224534,0.49205569,-0.22903422
 ,0.02531011,0.58196074,0.00582010,0.00896054,-0.00585671,0.09564912,0.
 00810870,-0.04051859,0.02045968,-0.04449454,0.36276898,-0.00511119,0.0
 1732329,0.00459558,0.01297804,-0.05347643,0.58293430,0.00155589,-0.002
 92681,0.00144197,-0.03148389,-0.01899008,-0.01349153,0.61637416,-0.000
 01870,-0.00109267,0.00038675,-0.01789427,-0.00107840,-0.00847749,0.061
 75411,0.56838356,0.00074603,-0.00117384,0.00114511,-0.01439099,-0.0091
 6487,0.00180825,0.11204016,-0.26240183,0.34108965,-0.00013093,0.003448
 48,-0.00185101,-0.03565585,0.01706129,0.01375816,-0.00320720,-0.001810
 56,-0.00152587,0.65993063,0.00039218,-0.00068345,0.00032526,0.01698030
 ,0.00236922,-0.00473088,0.00156291,0.00105419,0.00079453,0.02211202,0.
 67094732,0.00005675,-0.00131449,0.00090881,0.01513704,-0.00581598,0.00
 164440,0.00143633,0.00087162,0.00073957,0.03541611,0.18128230,0.191396
 31,-0.04002288,0.07987316,0.08090805,-0.00008820,-0.00001274,-0.000498
 43,-0.00043544,-0.00004495,-0.00001378,0.00001352,-0.00009918,-0.00004
 647,0.04331115,0.10343206,-0.31787361,-0.22511791,0.00030942,-0.001009
 90,0.00229309,0.00008686,0.00024250,0.00007423,-0.00022798,0.00011534,
 0.00006047,-0.09498750,0.30970961,0.08188924,-0.17565639,-0.20553008,-
 0.00072625,0.00644671,-0.00384178,0.00037024,0.00020159,0.00000750,-0.
 00038368,0.00012444,0.00009258,-0.09131391,0.21049656,0.22110676,-0.06
 819374,-0.05141219,0.14836733,-0.00138580,0.00566720,-0.00034305,0.000
 06619,0.00013412,-0.00007226,-0.00062254,-0.00014358,0.00028869,-0.002
 70349,-0.00840302,0.00929667,0.06914627,-0.07140550,-0.13802267,0.1900
 6201,0.00237160,-0.00520432,0.00048438,-0.00013281,0.00006749,-0.00022
 587,0.00027445,0.00005661,-0.00024020,0.01345415,0.01141765,-0.0335392
 2,0.06181134,0.12648626,0.14676733,0.13869816,-0.35799509,0.00081806,-
 0.00373868,0.00078445,-0.00046017,-0.00030234,-0.00031091,0.00052752,-
 0.00024282,-0.00033081,0.00955522,0.01803158,-0.02062944,-0.15573191,-
 0.15981379,0.37947138,-0.00061484,0.00081480,0.00049234,-0.02513923,0.
 00368100,-0.00050593,-0.00337231,-0.00208704,0.00064637,-0.00389582,0.
 00106140,-0.00055341,0.00050329,0.00043768,-0.00023736,-0.00000399,0.0
 0007774,-0.00010912,0.02341113,0.00134734,-0.00366322,-0.00203706,0.00
 347270,-0.04644344,-0.03888451,-0.00199506,-0.00125198,0.00015710,0.00
 152054,-0.00033021,0.00040407,0.00051114,-0.00114409,0.00113213,-0.000
 28598,-0.00007421,0.00008357,-0.00346243,0.04167457,0.00040789,-0.0013
 9671,0.00131036,-0.00506178,-0.00140675,-0.47887563,0.00308429,0.00160
 822,0.00155540,-0.00322777,0.00116693,0.00146772,-0.00010750,0.0001652
 1,0.00028862,0.00019148,-0.00012669,-0.00012149,0.00443655,0.00932511,
 0.49503204,-0.01199811,0.00407045,0.00465688,-0.03955002,0.02783312,-0
 .00841592,-0.00361537,0.00070191,-0.00248918,-0.00194958,-0.00132547,0
 .00114306,-0.00176249,-0.00104230,0.00115064,0.00258693,-0.00623079,-0
 .00115398,0.00015825,-0.00120699,-0.00007369,0.05106220,0.00080104,0.0
 0578513,-0.00852352,0.03032186,-0.24475370,0.07301165,0.00754813,0.003
 11235,0.00332374,-0.00841510,0.00209578,0.00358662,0.00095228,-0.00036
 996,-0.00823395,-0.00749909,0.00580631,0.00563108,-0.00125001,0.007819
 42,-0.00374351,-0.02307661,0.23271552,0.00562417,-0.00703546,-0.020588
 24,-0.00288610,0.02762592,-0.07405356,-0.00413461,-0.00061266,-0.00263
 052,0.00508868,-0.00039679,-0.00203879,0.00162456,-0.00565271,0.008365
 15,-0.00155637,0.00176315,-0.00260938,-0.00535775,0.03761163,-0.012884
 21,0.00360981,-0.05073558,0.09467960,-0.00001954,0.00085339,0.00014260
 ,0.00081167,-0.00085346,0.00000291,-0.24618193,0.17612568,-0.11370144,
 0.00054623,-0.00015299,-0.00016122,0.00030518,-0.00011755,-0.00014272,
 -0.00004366,-0.00019018,0.00013335,-0.00016367,-0.00017666,-0.00026480
 ,-0.00085137,-0.00097212,-0.00037562,0.23882035,0.00148398,-0.00046306
 ,0.00070671,-0.00399585,-0.00433206,-0.00051254,0.16797715,-0.24430696
 ,0.12315172,-0.00038753,0.00004129,0.00012877,-0.00028309,-0.00025884,
 -0.00016271,-0.00031741,-0.00019562,0.00007347,0.00000136,0.00015979,0
 .00026959,-0.00151837,0.00251290,-0.00135111,-0.18203210,0.23981703,-0
 .00000473,0.00041650,-0.00095948,0.00175554,0.00032555,-0.00008742,-0.
 08232184,0.09610404,-0.06355095,0.00056106,-0.00017972,-0.00027691,-0.
 00017563,-0.00015910,0.00011313,0.00024143,0.00023944,0.00040497,-0.00
 036703,0.00002832,-0.00012089,-0.00040367,-0.00118545,0.00075644,0.106
 26075,-0.11874764,0.07602367,-0.00343183,0.00568350,-0.00295649,0.0147
 4879,0.01558036,0.00943207,-0.17989745,-0.07444089,-0.08532571,0.00596
 604,-0.00254656,-0.00248460,0.00083354,0.00005803,-0.00068739,-0.00008
 899,0.00040079,0.00075703,0.00514086,0.00329291,-0.00484314,0.00606288
 ,-0.01558692,0.00759139,-0.01007308,-0.00231867,-0.00794067,0.17817251
 ,-0.00042862,0.00268094,-0.00109685,0.01957236,-0.00814609,0.00724406,
 -0.09353705,-0.10960171,-0.02217557,0.00400369,-0.00222869,-0.00196378
 ,0.00036039,-0.00027254,-0.00038650,-0.00002907,0.00016099,0.00070855,
 0.00241909,0.00163441,-0.00300914,-0.00607283,-0.00957210,0.00000565,0
 .02122102,0.02040625,0.00845908,0.06997358,0.10686440,-0.00130174,0.00
 225516,-0.00223022,0.01890646,0.01127445,-0.01430538,-0.11253907,-0.02
 615423,-0.09386952,0.00334883,-0.00184361,-0.00173308,-0.00003661,-0.0
 0015841,-0.00007981,0.00009575,0.00050286,0.00057220,-0.00662066,-0.00
 368543,-0.00415025,0.00449317,-0.00639565,0.00542429,-0.00167860,-0.00
 562982,-0.00599182,0.07929264,0.02076927,0.09668725,0.00000150,0.00045
 155,-0.00004779,-0.00087362,0.00057750,-0.00200621,-0.15680410,-0.1458
 7463,0.10099885,0.00030955,0.00000662,-0.00005871,0.00006270,-0.000086
 88,-0.00009369,-0.00006257,-0.00005206,0.00006081,-0.00071090,-0.00067
 403,-0.00019204,0.00020560,-0.00056472,0.00026989,0.01814614,0.0204514
 7,-0.01636568,-0.00357969,-0.01048769,0.02212899,0.14419509,0.00016336
 ,0.00046829,-0.00014150,0.00290923,0.00082859,0.00034783,-0.11755304,-
 0.21285509,0.16950493,0.00080951,-0.00042192,-0.00029561,-0.00006526,-
 0.00017229,-0.00006965,-0.00011620,-0.00007683,0.00012432,-0.00050866,
 0.00016690,-0.00040060,-0.00018163,-0.00077381,0.00013924,-0.01403099,
 -0.01337406,0.01440574,-0.00613028,-0.00733759,0.00479683,0.13641056,0
 .23244714,-0.00001249,-0.00029210,-0.00010158,-0.00408926,-0.00085252,
 -0.00253320,0.09791097,0.20071252,-0.18411028,-0.00036914,0.00014237,0
 .00005549,-0.00006709,0.00003279,0.00013647,0.00004697,0.00004833,-0.0
 0000764,-0.00093993,-0.00068342,0.00046695,0.00040572,0.00068594,-0.00
 000013,0.00956653,0.00237206,-0.00700191,0.00156031,-0.01296665,0.0154
 6303,-0.10482628,-0.18888171,0.17762938,0.00035737,-0.00663575,0.00351
 920,0.01895483,-0.01342421,-0.00846716,0.00628417,0.00339784,0.0029314
 3,-0.22262365,0.03307562,0.07944432,0.00002828,0.00038577,0.00071956,0
 .00128259,-0.00057042,-0.00100704,0.00590983,-0.00271014,0.00518456,0.
 00020018,0.01629947,-0.00890659,-0.00099878,0.00070813,-0.00107505,-0.
 01245254,-0.00704548,-0.00606440,-0.00053937,-0.00160015,0.00064979,0.
 20747650,-0.00086863,0.00143383,-0.00034102,-0.01668009,-0.01288468,0.
 00629376,-0.00319286,-0.00208701,-0.00161332,0.02207487,-0.07731942,-0
 .03557658,0.00006877,-0.00026627,-0.00030444,0.00008445,-0.00027127,0.
 00053408,-0.00187884,0.00107377,-0.00217054,0.00715861,-0.00488188,-0.
 00111765,0.00029920,-0.00014924,0.00028683,0.00487316,0.00440318,0.003
 67129,-0.00006247,0.00073492,-0.00025761,-0.02775649,0.08231677,0.0000
 1698,0.00281231,-0.00210857,-0.01944303,0.00924961,-0.01587098,-0.0031
 9385,-0.00188612,-0.00165121,0.10835404,-0.04820807,-0.07624612,0.0000
 9864,-0.00008124,-0.00015573,-0.00067054,0.00071514,0.00054200,0.00785
 372,-0.00287448,-0.00439373,-0.00321538,-0.00695257,0.00531122,0.00025
 095,-0.00030036,0.00053630,0.00529037,0.00430652,0.00381512,0.00011642
 ,0.00050914,-0.00018557,-0.07335429,0.02987619,0.08472529,0.00028271,-
 0.00072336,0.00016830,0.00192764,0.00009265,0.00114567,0.00072633,0.00
 029547,0.00026013,-0.31350970,-0.14245799,-0.13670545,-0.00002625,0.00
 012580,0.00012347,-0.00000051,0.00014929,-0.00013763,-0.00083048,0.000
 19734,0.00044985,-0.00073384,0.00124980,-0.00032142,-0.00018231,0.0001
 1956,-0.00010963,-0.00130295,-0.00053664,-0.00044411,-0.00015284,-0.00
 014565,0.00009983,-0.01301382,-0.01186547,-0.01686865,0.31556191,-0.00
 039603,-0.00068466,0.00021480,0.00311566,-0.00252656,-0.00150995,0.000
 30811,0.00006796,0.00013057,-0.11842120,-0.13616780,-0.09190180,0.0001
 6888,-0.00002125,0.00005278,0.00037719,-0.00005309,0.00007465,0.000405
 02,0.00017263,0.00017522,0.00041688,0.00170927,-0.00064935,-0.00009443
 ,0.00013061,-0.00007153,-0.00059211,-0.00016417,-0.00020454,-0.0000903
 9,-0.00001541,0.00002877,-0.00023237,0.00906463,0.01090401,0.14813459,
 0.13983535,0.00007460,-0.00018858,-0.00018273,0.00222049,-0.00186658,-
 0.00157315,0.00008420,0.00004629,-0.00000795,-0.15906140,-0.11781125,-
 0.10499004,0.00004887,0.00003328,0.00012812,-0.00016580,0.00010153,0.0
 0009039,0.00096471,-0.00011889,0.00032110,0.00016288,0.00017234,-0.000
 05756,-0.00004580,0.00000467,0.00002764,-0.00020039,-0.00007209,-0.000
 00540,-0.00003617,-0.00004853,0.00007129,0.00750078,0.01437609,0.00873
 394,0.14897902,0.10091984,0.09957446,0.00004464,-0.00021243,0.00004955
 ,-0.00373554,-0.00082679,0.00152256,-0.00000904,-0.00023809,-0.0001037
 3,-0.08517070,0.07153471,0.00708756,-0.00001892,0.00002961,0.00003519,
 0.00002332,0.00004240,-0.00001948,-0.00039210,0.00016932,0.00001610,0.
 00018474,0.00019199,-0.00027003,-0.00011524,0.00011137,-0.00005484,-0.
 00009810,0.00058724,0.00041933,-0.00019749,0.00003921,0.00006407,0.009
 13440,0.02774578,-0.00523538,0.01125410,-0.03309980,-0.00052599,0.0690
 9594,-0.00036584,0.00057803,-0.00020745,-0.00494893,0.00093094,0.00059
 376,-0.00090956,-0.00065423,-0.00038153,0.05795753,-0.45952827,-0.0492
 2540,0.00010394,-0.00009636,-0.00010138,0.00013224,-0.00009730,0.00013
 816,0.00028889,0.00020565,-0.00045635,0.00047401,-0.00120524,0.0004057
 0,0.00012118,0.00001198,0.00007796,0.00175311,0.00117272,0.00080181,-0
 .00000483,0.00038117,-0.00008877,0.00610818,-0.00116734,0.00192992,0.0
 0536460,-0.01134752,0.00445188,-0.06607452,0.47081576,-0.00011864,0.00
 024204,-0.00022460,0.00063850,0.00093989,-0.00062588,-0.00022708,-0.00
 009637,-0.00021414,-0.00063552,-0.01042271,-0.01068913,0.00002407,-0.0
 0001783,-0.00000151,0.00001161,0.00002892,0.00013937,0.00029750,-0.000
 45816,0.00010402,0.00012966,-0.00064115,0.00032570,0.00001312,-0.00000
 280,0.00012725,0.00051457,0.00017745,0.00040359,0.00005160,0.00000958,
 0.00011770,-0.00107511,-0.01365708,-0.00305196,0.00336063,-0.01816348,
 -0.00213011,-0.00298491,0.04206169,0.01571970\\-0.00000005,-0.00000010
 ,0.00000047,-0.00000072,0.00000037,0.00000086,-0.00000016,-0.00000002,
 -0.00000010,0.00000018,0.00000031,0.00000063,-0.00000001,0.00000005,-0
 .00000011,-0.00000009,-0.00000010,0.00000001,0.00000020,-0.00000013,-0
 .00000012,0.00000055,0.00000009,-0.00000082,0.00000009,0.,0.,0.0000002
 6,0.00000004,-0.00000002,0.00000005,0.00000004,0.00000002,-0.00000023,
 -0.00000065,-0.00000064,-0.00000008,-0.00000003,-0.00000019,0.00000001
 ,0.00000014,0.\\\@


 SUPPORT THE RIGHT TO ARM BEARS!
 (ADD A CLAWS TO THE BILL OF RIGHTS)
 Job cpu time:  0 days  1 hours 49 minutes 15.7 seconds.
 File lengths (MBytes):  RWF=   4642 Int=      0 D2E=      0 Chk=      9 Scr=      1
 Normal termination of Gaussian 03 at Tue May 18 16:25:40 2010.
