 Entering Gaussian System, Link 0=g03
 Initial command:
 /usr/local/g03-em64t/g03/l1.exe /usr/scratch/Gau-31807.inp -scrdir=/usr/scratch/
 Entering Link 1 = /usr/local/g03-em64t/g03/l1.exe PID=     31808.
  
 Copyright (c) 1988,1990,1992,1993,1995,1998,2003,2004, Gaussian, Inc.
                  All Rights Reserved.
  
 This is the Gaussian(R) 03 program.  It is based on the
 the Gaussian(R) 98 system (copyright 1998, Gaussian, Inc.),
 the Gaussian(R) 94 system (copyright 1995, Gaussian, Inc.),
 the Gaussian 92(TM) system (copyright 1992, Gaussian, Inc.),
 the Gaussian 90(TM) system (copyright 1990, Gaussian, Inc.),
 the Gaussian 88(TM) system (copyright 1988, Gaussian, Inc.),
 the Gaussian 86(TM) system (copyright 1986, Carnegie Mellon
 University), and the Gaussian 82(TM) system (copyright 1983,
 Carnegie Mellon University). Gaussian is a federally registered
 trademark of Gaussian, Inc.
  
 This software contains proprietary and confidential information,
 including trade secrets, belonging to Gaussian, Inc.
  
 This software is provided under written license and may be
 used, copied, transmitted, or stored only in accord with that
 written license.
  
 The following legend is applicable only to US Government
 contracts under FAR:
  
                    RESTRICTED RIGHTS LEGEND
  
 Use, reproduction and disclosure by the US Government is
 subject to restrictions as set forth in subparagraphs (a)
 and (c) of the Commercial Computer Software - Restricted
 Rights clause in FAR 52.227-19.
  
 Gaussian, Inc.
 340 Quinnipiac St., Bldg. 40, Wallingford CT 06492
  
  
 ---------------------------------------------------------------
 Warning -- This program may not be used in any manner that
 competes with the business of Gaussian, Inc. or will provide
 assistance to any competitor of Gaussian, Inc.  The licensee
 of this program is prohibited from giving any competitor of
 Gaussian, Inc. access to this program.  By using this program,
 the user acknowledges that Gaussian, Inc. is engaged in the
 business of creating and licensing software in the field of
 computational chemistry and represents and warrants to the
 licensee that it is not a competitor of Gaussian, Inc. and that
 it will not use this program in any manner prohibited above.
 ---------------------------------------------------------------
  

 Cite this work as:
 Gaussian 03, Revision D.01,
 M. J. Frisch, G. W. Trucks, H. B. Schlegel, G. E. Scuseria, 
 M. A. Robb, J. R. Cheeseman, J. A. Montgomery, Jr., T. Vreven, 
 K. N. Kudin, J. C. Burant, J. M. Millam, S. S. Iyengar, J. Tomasi, 
 V. Barone, B. Mennucci, M. Cossi, G. Scalmani, N. Rega, 
 G. A. Petersson, H. Nakatsuji, M. Hada, M. Ehara, K. Toyota, 
 R. Fukuda, J. Hasegawa, M. Ishida, T. Nakajima, Y. Honda, O. Kitao, 
 H. Nakai, M. Klene, X. Li, J. E. Knox, H. P. Hratchian, J. B. Cross, 
 V. Bakken, C. Adamo, J. Jaramillo, R. Gomperts, R. E. Stratmann, 
 O. Yazyev, A. J. Austin, R. Cammi, C. Pomelli, J. W. Ochterski, 
 P. Y. Ayala, K. Morokuma, G. A. Voth, P. Salvador, J. J. Dannenberg, 
 V. G. Zakrzewski, S. Dapprich, A. D. Daniels, M. C. Strain, 
 O. Farkas, D. K. Malick, A. D. Rabuck, K. Raghavachari, 
 J. B. Foresman, J. V. Ortiz, Q. Cui, A. G. Baboul, S. Clifford, 
 J. Cioslowski, B. B. Stefanov, G. Liu, A. Liashenko, P. Piskorz, 
 I. Komaromi, R. L. Martin, D. J. Fox, T. Keith, M. A. Al-Laham, 
 C. Y. Peng, A. Nanayakkara, M. Challacombe, P. M. W. Gill, 
 B. Johnson, W. Chen, M. W. Wong, C. Gonzalez, and J. A. Pople, 
 Gaussian, Inc., Wallingford CT, 2004.
 
 ******************************************
 Gaussian 03:  AM64L-G03RevD.01 13-Oct-2005
                20-Apr-2007 
 ******************************************
 %chk=pW3-MP2.chk
 %mem=64MW
 %nproc=1
 Will use up to    1 processors via shared memory.
 --------------------------
 # opt freq mp2/aug-cc-pvDZ
 --------------------------
 1/18=20,38=1/1,3;
 2/9=110,17=6,18=5,40=1/2;
 3/5=16,7=10,11=9,16=1,25=1,30=1/1,2,3;
 4//1;
 5/5=2,38=5/2;
 8/6=4,10=1/1;
 9/15=2,16=-3/6;
 10/5=1/2;
 6/7=2,8=2,9=2,10=2/1;
 7/12=2/1,2,3,16;
 1/18=20/3(3);
 2/9=110/2;
 6/7=2,8=2,9=2,10=2/1;
 99//99;
 2/9=110/2;
 3/5=16,7=10,11=9,16=1,25=1,30=1/1,2,3;
 4/5=5,16=3/1;
 5/5=2,38=5/2;
 8/6=4,10=1/1;
 9/15=2,16=-3/6;
 10/5=1/2;
 7/12=2/1,2,3,16;
 1/18=20/3(-8);
 2/9=110/2;
 6/7=2,8=2,9=2,10=2/1;
 99//99;
 -------------------
 Title Card Required
 -------------------
 Symbolic Z-matrix:
 Charge =  1 Multiplicity = 1
 O                     0.20745  -0.68674  -0.10796 
 O                     1.87577   0.80147   0.94356 
 O                    -2.08322  -0.11473  -0.8356 
 H                     0.8437    0.00744   0.3243 
 H                    -0.73517  -0.35792  -0.38526 
 H                     1.96001   1.74612   0.74444 
 H                     2.09042   0.65826   1.87833 
 H                    -2.82685  -0.47949  -0.33126 
 H                    -2.33883   0.75121  -1.18762 
 H                     0.63843  -1.15219  -0.8273 
 

 GradGradGradGradGradGradGradGradGradGradGradGradGradGradGradGradGradGrad
 Berny optimization.
 Initialization pass.
                           ----------------------------
                           !    Initial Parameters    !
                           ! (Angstroms and Degrees)  !
 --------------------------                            --------------------------
 ! Name  Definition              Value          Derivative Info.                !
 --------------------------------------------------------------------------------
 ! R1    R(1,4)                  1.0361         estimate D2E/DX2                !
 ! R2    R(1,5)                  1.0361         estimate D2E/DX2                !
 ! R3    R(1,10)                 0.9591         estimate D2E/DX2                !
 ! R4    R(2,4)                  1.4419         estimate D2E/DX2                !
 ! R5    R(2,6)                  0.9691         estimate D2E/DX2                !
 ! R6    R(2,7)                  0.9697         estimate D2E/DX2                !
 ! R7    R(3,5)                  1.4419         estimate D2E/DX2                !
 ! R8    R(3,8)                  0.9697         estimate D2E/DX2                !
 ! R9    R(3,9)                  0.9691         estimate D2E/DX2                !
 ! A1    A(4,1,5)              117.2372         estimate D2E/DX2                !
 ! A2    A(4,1,10)             111.2299         estimate D2E/DX2                !
 ! A3    A(5,1,10)             111.2296         estimate D2E/DX2                !
 ! A4    A(4,2,6)              120.715          estimate D2E/DX2                !
 ! A5    A(4,2,7)              119.4124         estimate D2E/DX2                !
 ! A6    A(6,2,7)              108.8317         estimate D2E/DX2                !
 ! A7    A(5,3,8)              119.4086         estimate D2E/DX2                !
 ! A8    A(5,3,9)              120.7134         estimate D2E/DX2                !
 ! A9    A(8,3,9)              108.831          estimate D2E/DX2                !
 ! A10   A(1,4,2)              170.9813         estimate D2E/DX2                !
 ! A11   A(1,5,3)              170.9781         estimate D2E/DX2                !
 ! D1    D(5,1,4,2)            178.4173         estimate D2E/DX2                !
 ! D2    D(10,1,4,2)           -52.0228         estimate D2E/DX2                !
 ! D3    D(4,1,5,3)           -178.4024         estimate D2E/DX2                !
 ! D4    D(10,1,5,3)            52.0376         estimate D2E/DX2                !
 ! D5    D(6,2,4,1)            149.6459         estimate D2E/DX2                !
 ! D6    D(7,2,4,1)            -70.3628         estimate D2E/DX2                !
 ! D7    D(8,3,5,1)             70.3706         estimate D2E/DX2                !
 ! D8    D(9,3,5,1)           -149.6479         estimate D2E/DX2                !
 --------------------------------------------------------------------------------
 Trust Radius=3.00D-01 FncErr=1.00D-07 GrdErr=1.00D-07
 Number of steps in this run=  38 maximum allowed number of steps= 100.
 GradGradGradGradGradGradGradGradGradGradGradGradGradGradGradGradGradGrad

                          Input orientation:                          
 ---------------------------------------------------------------------
 Center     Atomic     Atomic              Coordinates (Angstroms)
 Number     Number      Type              X           Y           Z
 ---------------------------------------------------------------------
    1          8             0        0.207452   -0.686744   -0.107963
    2          8             0        1.875771    0.801470    0.943560
    3          8             0       -2.083222   -0.114726   -0.835597
    4          1             0        0.843702    0.007439    0.324302
    5          1             0       -0.735169   -0.357916   -0.385256
    6          1             0        1.960007    1.746119    0.744439
    7          1             0        2.090424    0.658255    1.878330
    8          1             0       -2.826845   -0.479490   -0.331262
    9          1             0       -2.338826    0.751210   -1.187621
   10          1             0        0.638432   -1.152192   -0.827303
 ---------------------------------------------------------------------
                    Distance matrix (angstroms):
                    1          2          3          4          5
     1  O    0.000000
     2  O    2.470581   0.000000
     3  O    2.470596   4.436039   0.000000
     4  H    1.036126   1.441920   3.150742   0.000000
     5  H    1.036124   3.150704   1.441941   1.769121   0.000000
     6  H    3.117188   0.969075   4.723024   2.108473   3.600993
     7  H    3.049585   0.969733   5.038077   2.095920   3.760372
     8  H    3.049553   5.037919   0.969733   3.760290   2.095902
     9  H    3.117195   4.723059   0.969071   3.601054   2.108475
    10  H    0.959081   2.912689   2.912697   1.647141   1.647137
                    6          7          8          9         10
     6  H    0.000000
     7  H    1.576758   0.000000
     8  H    5.387432   5.509655   0.000000
     9  H    4.816914   5.387667   1.576748   0.000000
    10  H    3.552061   3.564611   3.564650   3.552018   0.000000
 Stoichiometry    H7O3(1+)
 Framework group  C1[X(H7O3)]
 Deg. of freedom    24
 Full point group                 C1
 Largest Abelian subgroup         C1      NOp   1
 Largest concise Abelian subgroup C1      NOp   1
                         Standard orientation:                         
 ---------------------------------------------------------------------
 Center     Atomic     Atomic              Coordinates (Angstroms)
 Number     Number      Type              X           Y           Z
 ---------------------------------------------------------------------
    1          8             0       -0.000004    0.765125    0.030602
    2          8             0       -2.218010   -0.322164   -0.014402
    3          8             0        2.218029   -0.322140   -0.014394
    4          1             0       -0.884571    0.226187    0.005195
    5          1             0        0.884550    0.226173    0.005172
    6          1             0       -2.408423   -1.143622   -0.491954
    7          1             0       -2.754909   -0.297688    0.792767
    8          1             0        2.754746   -0.297900    0.792904
    9          1             0        2.408491   -1.143500   -0.492088
   10          1             0       -0.000004    1.463785   -0.626445
 ---------------------------------------------------------------------
 Rotational constants (GHZ):     25.3751129      2.6865930      2.4810921
 Standard basis: Aug-CC-pVDZ (5D, 7F)
 There are   132 symmetry adapted basis functions of A   symmetry.
 Integral buffers will be    131072 words long.
 Raffenetti 1 integral format.
 Two-electron integral symmetry is turned on.
   132 basis functions,   206 primitive gaussians,   138 cartesian basis functions
    15 alpha electrons       15 beta electrons
       nuclear repulsion energy        89.7290457379 Hartrees.
 NAtoms=   10 NActive=   10 NUniq=   10 SFac= 7.50D-01 NAtFMM=   80 NAOKFM=F Big=F
 One-electron integrals computed using PRISM.
 NBasis=   132 RedAO= T  NBF=   132
 NBsUse=   132 1.00D-06 NBFU=   132
 Harris functional with IExCor=  205 diagonalized for initial guess.
 ExpMin= 2.97D-02 ExpMax= 1.17D+04 ExpMxC= 4.01D+02 IAcc=3 IRadAn=         5 AccDes= 0.00D+00
 HarFok:  IExCor= 205 AccDes= 0.00D+00 IRadAn=         5 IDoV=1
 ScaDFX=  1.000000  1.000000  1.000000  1.000000
 Initial guess orbital symmetries:
       Occupied  (A) (A) (A) (A) (A) (A) (A) (A) (A) (A) (A) (A)
                 (A) (A) (A)
       Virtual   (A) (A) (A) (A) (A) (A) (A) (A) (A) (A) (A) (A)
                 (A) (A) (A) (A) (A) (A) (A) (A) (A) (A) (A) (A)
                 (A) (A) (A) (A) (A) (A) (A) (A) (A) (A) (A) (A)
                 (A) (A) (A) (A) (A) (A) (A) (A) (A) (A) (A) (A)
                 (A) (A) (A) (A) (A) (A) (A) (A) (A) (A) (A) (A)
                 (A) (A) (A) (A) (A) (A) (A) (A) (A) (A) (A) (A)
                 (A) (A) (A) (A) (A) (A) (A) (A) (A) (A) (A) (A)
                 (A) (A) (A) (A) (A) (A) (A) (A) (A) (A) (A) (A)
                 (A) (A) (A) (A) (A) (A) (A) (A) (A) (A) (A) (A)
                 (A) (A) (A) (A) (A) (A) (A) (A) (A)
 The electronic state of the initial guess is 1-A.
 Requested convergence on RMS density matrix=1.00D-08 within 128 cycles.
 Requested convergence on MAX density matrix=1.00D-06.
 Requested convergence on             energy=1.00D-06.
 No special actions if energy rises.
 Keep R1 integrals in memory in canonical form, NReq=    48246615.
 SCF Done:  E(RHF) =  -228.478936946     A.U. after   10 cycles
             Convg  =    0.8773D-08             -V/T =  2.0014
             S**2   =   0.0000
 ExpMin= 2.97D-02 ExpMax= 1.17D+04 ExpMxC= 4.01D+02 IAcc=3 IRadAn=         5 AccDes= 0.00D+00
 HarFok:  IExCor= 205 AccDes= 0.00D+00 IRadAn=         5 IDoV=1
 ScaDFX=  1.000000  1.000000  1.000000  1.000000
 Range of M.O.s used for correlation:     4   132
 NBasis=   132 NAE=    15 NBE=    15 NFC=     3 NFV=     0
 NROrb=    129 NOA=    12 NOB=    12 NVA=   117 NVB=   117
 Fully direct method using O(ONN) memory.
 JobTyp=1 Pass  1:  I=   4 to  15 NPSUse=  1 ParTrn=F ParDer=F DoDerP=T.
 Spin components of T(2) and E(2):
     alpha-alpha T2 =       0.2259904672D-01 E2=     -0.8511168269D-01
     alpha-beta  T2 =       0.1265694734D+00 E2=     -0.4936172902D+00
     beta-beta   T2 =       0.2259904672D-01 E2=     -0.8511168269D-01
 ANorm=    0.1082482132D+01
 E2 =    -0.6638406555D+00 EUMP2 =    -0.22914277760142D+03
 DoAtom=TTTTTTTTTT
          Differentiating once with respect to electric field.
                with respect to dipole field.
          Differentiating once with respect to nuclear coordinates.
          Store integrals in memory, NReq=    46819552.
          There are   1 degrees of freedom in the 1st order CPHF.
     1 vectors were produced by pass  0.
 AX will form   1 AO Fock derivatives at one time.
     1 vectors were produced by pass  1.
     1 vectors were produced by pass  2.
     1 vectors were produced by pass  3.
     1 vectors were produced by pass  4.
     1 vectors were produced by pass  5.
     1 vectors were produced by pass  6.
     1 vectors were produced by pass  7.
     1 vectors were produced by pass  8.
     1 vectors were produced by pass  9.
     1 vectors were produced by pass 10.
 Inv2:  IOpt= 1 Iter= 1 AM= 3.00D-16 Conv= 1.00D-12.
 Inverted reduced A of dimension   11 with in-core refinement.
 End of Minotr Frequency-dependent properties file   721 does not exist.

 **********************************************************************

            Population analysis using the SCF density.

 **********************************************************************

 Orbital symmetries:
       Occupied  (A) (A) (A) (A) (A) (A) (A) (A) (A) (A) (A) (A)
                 (A) (A) (A)
       Virtual   (A) (A) (A) (A) (A) (A) (A) (A) (A) (A) (A) (A)
                 (A) (A) (A) (A) (A) (A) (A) (A) (A) (A) (A) (A)
                 (A) (A) (A) (A) (A) (A) (A) (A) (A) (A) (A) (A)
                 (A) (A) (A) (A) (A) (A) (A) (A) (A) (A) (A) (A)
                 (A) (A) (A) (A) (A) (A) (A) (A) (A) (A) (A) (A)
                 (A) (A) (A) (A) (A) (A) (A) (A) (A) (A) (A) (A)
                 (A) (A) (A) (A) (A) (A) (A) (A) (A) (A) (A) (A)
                 (A) (A) (A) (A) (A) (A) (A) (A) (A) (A) (A) (A)
                 (A) (A) (A) (A) (A) (A) (A) (A) (A) (A) (A) (A)
                 (A) (A) (A) (A) (A) (A) (A) (A) (A)
 The electronic state is 1-A.
 Alpha  occ. eigenvalues --  -20.84279 -20.79336 -20.79336  -1.64948  -1.57525
 Alpha  occ. eigenvalues --   -1.56909  -1.01361  -0.99628  -0.93897  -0.93830
 Alpha  occ. eigenvalues --   -0.83694  -0.78825  -0.78383  -0.73240  -0.73072
 Alpha virt. eigenvalues --   -0.10768  -0.08033  -0.07163  -0.06438  -0.04282
 Alpha virt. eigenvalues --   -0.03557  -0.02384   0.02755   0.03694   0.04654
 Alpha virt. eigenvalues --    0.05026   0.06700   0.07833   0.08722   0.08991
 Alpha virt. eigenvalues --    0.11008   0.11590   0.12783   0.13239   0.14625
 Alpha virt. eigenvalues --    0.14707   0.15861   0.19424   0.19843   0.20517
 Alpha virt. eigenvalues --    0.21419   0.27342   0.27525   0.29696   0.31294
 Alpha virt. eigenvalues --    0.34747   0.36510   0.37131   0.38079   0.39002
 Alpha virt. eigenvalues --    0.39396   0.41391   0.42423   0.42730   0.46218
 Alpha virt. eigenvalues --    0.48610   0.49334   0.49743   0.50648   0.51038
 Alpha virt. eigenvalues --    0.62624   0.64349   0.68486   0.69506   0.72702
 Alpha virt. eigenvalues --    0.74943   0.75415   0.78180   0.79786   0.93611
 Alpha virt. eigenvalues --    0.95752   0.97369   1.00199   1.03662   1.07407
 Alpha virt. eigenvalues --    1.13516   1.14094   1.19136   1.23020   1.23842
 Alpha virt. eigenvalues --    1.27552   1.35278   1.36322   1.36760   1.41587
 Alpha virt. eigenvalues --    1.48368   1.50442   1.72222   1.74220   1.75122
 Alpha virt. eigenvalues --    1.81955   1.82327   1.84510   1.93149   1.94687
 Alpha virt. eigenvalues --    1.94908   2.00520   2.13261   2.17950   2.26553
 Alpha virt. eigenvalues --    2.27542   2.29362   2.30973   2.35718   2.39498
 Alpha virt. eigenvalues --    2.43316   2.45177   2.52148   2.57032   2.62820
 Alpha virt. eigenvalues --    2.66013   2.66689   2.74673   2.81814   2.81839
 Alpha virt. eigenvalues --    2.96142   3.00196   3.46985   3.49052   3.49704
 Alpha virt. eigenvalues --    3.51323   3.51532   3.52735   3.54558   3.58223
 Alpha virt. eigenvalues --    3.88372   3.88682   3.93519   4.08633   4.10501
 Alpha virt. eigenvalues --    4.27078   4.27505
          Condensed to atoms (all electrons):
              1          2          3          4          5          6
     1  O    7.624177  -0.052453  -0.052447   0.234833   0.234835  -0.002442
     2  O   -0.052453   7.903266   0.001876  -0.067542  -0.019927   0.362129
     3  O   -0.052447   0.001876   7.903249  -0.019932  -0.067539  -0.000136
     4  H    0.234833  -0.067542  -0.019932   0.281460  -0.017185  -0.001547
     5  H    0.234835  -0.019927  -0.067539  -0.017185   0.281461  -0.000330
     6  H   -0.002442   0.362129  -0.000136  -0.001547  -0.000330   0.453136
     7  H    0.000838   0.376363   0.000178  -0.005095  -0.000452  -0.039663
     8  H    0.000837   0.000178   0.376366  -0.000453  -0.005093   0.000006
     9  H   -0.002442  -0.000136   0.362133  -0.000330  -0.001549   0.000117
    10  H    0.361159   0.002111   0.002111  -0.024003  -0.024002  -0.000444
              7          8          9         10
     1  O    0.000838   0.000837  -0.002442   0.361159
     2  O    0.376363   0.000178  -0.000136   0.002111
     3  O    0.000178   0.376366   0.362133   0.002111
     4  H   -0.005095  -0.000453  -0.000330  -0.024003
     5  H   -0.000452  -0.005093  -0.001549  -0.024002
     6  H   -0.039663   0.000006   0.000117  -0.000444
     7  H    0.456234  -0.000026   0.000006  -0.000097
     8  H   -0.000026   0.456232  -0.039661  -0.000097
     9  H    0.000006  -0.039661   0.453142  -0.000445
    10  H   -0.000097  -0.000097  -0.000445   0.446423
 Mulliken atomic charges:
              1
     1  O   -0.346895
     2  O   -0.505866
     3  O   -0.505859
     4  H    0.619794
     5  H    0.619780
     6  H    0.229173
     7  H    0.211714
     8  H    0.211710
     9  H    0.229165
    10  H    0.237284
 Sum of Mulliken charges=   1.00000
 Atomic charges with hydrogens summed into heavy atoms:
              1
     1  O    1.129963
     2  O   -0.064979
     3  O   -0.064984
     4  H    0.000000
     5  H    0.000000
     6  H    0.000000
     7  H    0.000000
     8  H    0.000000
     9  H    0.000000
    10  H    0.000000
 Sum of Mulliken charges=   1.00000
 Electronic spatial extent (au):  <R**2>=   446.2563
 Charge=     1.0000 electrons
 Dipole moment (field-independent basis, Debye):
    X=    -0.0003    Y=    -1.6609    Z=    -0.0532  Tot=     1.6617
 Quadrupole moment (field-independent basis, Debye-Ang):
   XX=     5.4451   YY=   -11.4092   ZZ=   -15.0743
   XY=    -0.0009   XZ=    -0.0004   YZ=    -0.2252
 Traceless Quadrupole moment (field-independent basis, Debye-Ang):
   XX=    12.4579   YY=    -4.3964   ZZ=    -8.0615
   XY=    -0.0009   XZ=    -0.0004   YZ=    -0.2252
 Octapole moment (field-independent basis, Debye-Ang**2):
  XXX=    -0.0075  YYY=    -0.2520  ZZZ=     1.2095  XYY=    -0.0009
  XXY=   -25.9983  XXZ=    16.2383  XZZ=     0.0024  YZZ=    -0.9871
  YYZ=    -6.8659  XYZ=    -0.0008
 Hexadecapole moment (field-independent basis, Debye-Ang**3):
 XXXX=  -208.6121 YYYY=   -34.0657 ZZZZ=   -16.3054 XXXY=    -0.0088
 XXXZ=    -0.0079 YYYX=     0.0020 YYYZ=    -1.4431 ZZZX=     0.0007
 ZZZY=    -0.8195 XXYY=   -46.9889 XXZZ=   -43.9983 YYZZ=    -7.9764
 XXYZ=     9.5608 YYXZ=     0.0004 ZZXY=    -0.0024
 N-N= 8.972904573790D+01 E-N=-7.146146873201D+02  KE= 2.281640132938D+02
 ***** Axes restored to original set *****
 -------------------------------------------------------------------
 Center     Atomic                   Forces (Hartrees/Bohr)
 Number     Number              X              Y              Z
 -------------------------------------------------------------------
    1          8          -0.004653208    0.002800005    0.008911110
    2          8          -0.001233474    0.000250206   -0.001322123
    3          8           0.001588893    0.000899511   -0.000052362
    4          1           0.002873787   -0.000440431    0.000796308
    5          1          -0.002112834   -0.001595460   -0.001444047
    6          1           0.002216579   -0.000673311    0.004142132
    7          1           0.000816755    0.003650243   -0.001151841
    8          1          -0.001006048    0.003227495   -0.001972078
    9          1          -0.004032415   -0.002114755    0.001333493
   10          1           0.005541966   -0.006003503   -0.009240592
 -------------------------------------------------------------------
 Cartesian Forces:  Max     0.009240592 RMS     0.003471623

 GradGradGradGradGradGradGradGradGradGradGradGradGradGradGradGradGradGrad
 Berny optimization.
 Internal  Forces:  Max     0.012334650 RMS     0.003518659
 Search for a local minimum.
 Step number   1 out of a maximum of  38
 All quantities printed in internal units (Hartrees-Bohrs-Radians)
 Second derivative matrix not updated -- first step.
     Eigenvalues ---    0.00230   0.00230   0.00551   0.00551   0.03118
     Eigenvalues ---    0.03119   0.03731   0.12979   0.12979   0.14462
     Eigenvalues ---    0.16000   0.16000   0.16000   0.16000   0.16000
     Eigenvalues ---    0.25000   0.25000   0.41862   0.41862   0.53432
     Eigenvalues ---    0.53432   0.53566   0.53567   0.556721000.00000
     Eigenvalues --- 1000.000001000.000001000.00000
 RFO step:  Lambda=-1.23468046D-03.
 Linear search not attempted -- first point.
 Iteration  1 RMS(Cart)=  0.03297652 RMS(Int)=  0.00023259
 Iteration  2 RMS(Cart)=  0.00024713 RMS(Int)=  0.00001662
 Iteration  3 RMS(Cart)=  0.00000004 RMS(Int)=  0.00001662
 Variable       Old X    -DE/DX   Delta X   Delta X   Delta X     New X
                                 (Linear)    (Quad)   (Total)
    R1        1.95799   0.00577   0.00000   0.01373   0.01373   1.97173
    R2        1.95799   0.00576   0.00000   0.01373   0.01373   1.97172
    R3        1.81240   0.01233   0.00000   0.02211   0.02211   1.83451
    R4        2.72483   0.00378   0.00000   0.02886   0.02886   2.75370
    R5        1.83129  -0.00131   0.00000  -0.00245  -0.00245   1.82884
    R6        1.83253  -0.00147   0.00000  -0.00274  -0.00274   1.82979
    R7        2.72487   0.00378   0.00000   0.02885   0.02885   2.75373
    R8        1.83253  -0.00147   0.00000  -0.00274  -0.00274   1.82979
    R9        1.83128  -0.00131   0.00000  -0.00244  -0.00244   1.82884
    A1        2.04618   0.00141   0.00000   0.01090   0.01087   2.05705
    A2        1.94133  -0.00035   0.00000   0.00074   0.00070   1.94203
    A3        1.94132  -0.00035   0.00000   0.00074   0.00070   1.94202
    A4        2.10687   0.00389   0.00000   0.02322   0.02321   2.13008
    A5        2.08414   0.00199   0.00000   0.01142   0.01141   2.09555
    A6        1.89947  -0.00486   0.00000  -0.03127  -0.03129   1.86818
    A7        2.08407   0.00199   0.00000   0.01144   0.01142   2.09550
    A8        2.10685   0.00389   0.00000   0.02323   0.02322   2.13006
    A9        1.89946  -0.00486   0.00000  -0.03126  -0.03128   1.86818
   A10        2.98419   0.00137   0.00000   0.00546   0.00546   2.98965
   A11        2.98413   0.00137   0.00000   0.00547   0.00547   2.98960
    D1        3.11397  -0.00030   0.00000  -0.01644  -0.01645   3.09752
    D2       -0.90797   0.00016   0.00000  -0.00449  -0.00447  -0.91244
    D3       -3.11371   0.00030   0.00000   0.01636   0.01638  -3.09733
    D4        0.90823  -0.00016   0.00000   0.00441   0.00439   0.91262
    D5        2.61181   0.00007   0.00000  -0.00613  -0.00614   2.60568
    D6       -1.22806  -0.00014   0.00000  -0.01257  -0.01256  -1.24063
    D7        1.22820   0.00014   0.00000   0.01242   0.01241   1.24061
    D8       -2.61185  -0.00007   0.00000   0.00602   0.00603  -2.60582
         Item               Value     Threshold  Converged?
 Maximum Force            0.012335     0.000450     NO 
 RMS     Force            0.003519     0.000300     NO 
 Maximum Displacement     0.083617     0.001800     NO 
 RMS     Displacement     0.032911     0.001200     NO 
 Predicted change in Energy=-6.217070D-04
 GradGradGradGradGradGradGradGradGradGradGradGradGradGradGradGradGradGrad

                          Input orientation:                          
 ---------------------------------------------------------------------
 Center     Atomic     Atomic              Coordinates (Angstroms)
 Number     Number      Type              X           Y           Z
 ---------------------------------------------------------------------
    1          8             0        0.211479   -0.688441   -0.116052
    2          8             0        1.894582    0.805918    0.957236
    3          8             0       -2.105797   -0.119830   -0.840517
    4          1             0        0.854552    0.005458    0.323980
    5          1             0       -0.740642   -0.363667   -0.392906
    6          1             0        2.004255    1.748505    0.767241
    7          1             0        2.100526    0.679650    1.894900
    8          1             0       -2.852583   -0.466509   -0.330916
    9          1             0       -2.382289    0.733382   -1.204081
   10          1             0        0.647642   -1.161039   -0.843255
 ---------------------------------------------------------------------
                    Distance matrix (angstroms):
                    1          2          3          4          5
     1  O    0.000000
     2  O    2.493570   0.000000
     3  O    2.493579   4.482405   0.000000
     4  H    1.043392   1.457193   3.183617   0.000000
     5  H    1.043389   3.183586   1.457209   1.787407   0.000000
     6  H    3.151660   0.967779   4.792504   2.134598   3.652626
     7  H    3.079626   0.968282   5.080829   2.115366   3.794048
     8  H    3.079593   5.080746   0.968282   3.794008   2.115352
     9  H    3.151670   4.792513   0.967780   3.652668   2.134602
    10  H    0.970779   2.943731   2.943730   1.663119   1.663115
                    6          7          8          9         10
     6  H    0.000000
     7  H    1.556706   0.000000
     8  H    5.449873   5.549885   0.000000
     9  H    4.915115   5.449973   1.556706   0.000000
    10  H    3.591594   3.605066   3.605058   3.591589   0.000000
 Stoichiometry    H7O3(1+)
 Framework group  C1[X(H7O3)]
 Deg. of freedom    24
 Full point group                 C1
 Largest Abelian subgroup         C1      NOp   1
 Largest concise Abelian subgroup C1      NOp   1
                         Standard orientation:                         
 ---------------------------------------------------------------------
 Center     Atomic     Atomic              Coordinates (Angstroms)
 Number     Number      Type              X           Y           Z
 ---------------------------------------------------------------------
    1          8             0       -0.000002    0.768453    0.035234
    2          8             0       -2.241197   -0.323500   -0.015493
    3          8             0        2.241208   -0.323490   -0.015494
    4          1             0       -0.893713    0.230809    0.005463
    5          1             0        0.893694    0.230790    0.005444
    6          1             0       -2.457545   -1.128888   -0.506554
    7          1             0       -2.774984   -0.331721    0.792327
    8          1             0        2.774901   -0.331788    0.792388
    9          1             0        2.457570   -1.128863   -0.506576
   10          1             0        0.000002    1.487966   -0.616466
 ---------------------------------------------------------------------
 Rotational constants (GHZ):     25.1448573      2.6297564      2.4308731
 Standard basis: Aug-CC-pVDZ (5D, 7F)
 There are   132 symmetry adapted basis functions of A   symmetry.
 Integral buffers will be    131072 words long.
 Raffenetti 1 integral format.
 Two-electron integral symmetry is turned on.
   132 basis functions,   206 primitive gaussians,   138 cartesian basis functions
    15 alpha electrons       15 beta electrons
       nuclear repulsion energy        89.0653654513 Hartrees.
 NAtoms=   10 NActive=   10 NUniq=   10 SFac= 7.50D-01 NAtFMM=   80 NAOKFM=F Big=F
 One-electron integrals computed using PRISM.
 NBasis=   132 RedAO= T  NBF=   132
 NBsUse=   132 1.00D-06 NBFU=   132
 Initial guess read from the read-write file:
 Initial guess orbital symmetries:
       Occupied  (A) (A) (A) (A) (A) (A) (A) (A) (A) (A) (A) (A)
                 (A) (A) (A)
       Virtual   (A) (A) (A) (A) (A) (A) (A) (A) (A) (A) (A) (A)
                 (A) (A) (A) (A) (A) (A) (A) (A) (A) (A) (A) (A)
                 (A) (A) (A) (A) (A) (A) (A) (A) (A) (A) (A) (A)
                 (A) (A) (A) (A) (A) (A) (A) (A) (A) (A) (A) (A)
                 (A) (A) (A) (A) (A) (A) (A) (A) (A) (A) (A) (A)
                 (A) (A) (A) (A) (A) (A) (A) (A) (A) (A) (A) (A)
                 (A) (A) (A) (A) (A) (A) (A) (A) (A) (A) (A) (A)
                 (A) (A) (A) (A) (A) (A) (A) (A) (A) (A) (A) (A)
                 (A) (A) (A) (A) (A) (A) (A) (A) (A) (A) (A) (A)
                 (A) (A) (A) (A) (A) (A) (A) (A) (A)
 Harris functional with IExCor=  205 diagonalized for initial guess.
 ExpMin= 2.97D-02 ExpMax= 1.17D+04 ExpMxC= 4.01D+02 IAcc=3 IRadAn=         5 AccDes= 0.00D+00
 HarFok:  IExCor= 205 AccDes= 0.00D+00 IRadAn=         5 IDoV=1
 ScaDFX=  1.000000  1.000000  1.000000  1.000000
 Requested convergence on RMS density matrix=1.00D-08 within 128 cycles.
 Requested convergence on MAX density matrix=1.00D-06.
 Requested convergence on             energy=1.00D-06.
 No special actions if energy rises.
 Keep R1 integrals in memory in canonical form, NReq=    48246615.
 SCF Done:  E(RHF) =  -228.479053920     A.U. after    9 cycles
             Convg  =    0.6224D-08             -V/T =  2.0016
             S**2   =   0.0000
 ExpMin= 2.97D-02 ExpMax= 1.17D+04 ExpMxC= 4.01D+02 IAcc=3 IRadAn=         5 AccDes= 0.00D+00
 HarFok:  IExCor= 205 AccDes= 0.00D+00 IRadAn=         5 IDoV=1
 ScaDFX=  1.000000  1.000000  1.000000  1.000000
 Range of M.O.s used for correlation:     4   132
 NBasis=   132 NAE=    15 NBE=    15 NFC=     3 NFV=     0
 NROrb=    129 NOA=    12 NOB=    12 NVA=   117 NVB=   117
 Fully direct method using O(ONN) memory.
 JobTyp=1 Pass  1:  I=   4 to  15 NPSUse=  1 ParTrn=F ParDer=F DoDerP=T.
 Spin components of T(2) and E(2):
     alpha-alpha T2 =       0.2267115026D-01 E2=     -0.8513901914D-01
     alpha-beta  T2 =       0.1271126966D+00 E2=     -0.4941599463D+00
     beta-beta   T2 =       0.2267115026D-01 E2=     -0.8513901914D-01
 ANorm=    0.1082799611D+01
 E2 =    -0.6644379846D+00 EUMP2 =    -0.22914349190422D+03
 DoAtom=TTTTTTTTTT
          Differentiating once with respect to electric field.
                with respect to dipole field.
          Differentiating once with respect to nuclear coordinates.
          Store integrals in memory, NReq=    46819552.
          There are   1 degrees of freedom in the 1st order CPHF.
     1 vectors were produced by pass  0.
 AX will form   1 AO Fock derivatives at one time.
     1 vectors were produced by pass  1.
     1 vectors were produced by pass  2.
     1 vectors were produced by pass  3.
     1 vectors were produced by pass  4.
     1 vectors were produced by pass  5.
     1 vectors were produced by pass  6.
     1 vectors were produced by pass  7.
     1 vectors were produced by pass  8.
     1 vectors were produced by pass  9.
     1 vectors were produced by pass 10.
 Inv2:  IOpt= 1 Iter= 1 AM= 3.19D-16 Conv= 1.00D-12.
 Inverted reduced A of dimension   11 with in-core refinement.
 End of Minotr Frequency-dependent properties file   721 does not exist.
 ***** Axes restored to original set *****
 -------------------------------------------------------------------
 Center     Atomic                   Forces (Hartrees/Bohr)
 Number     Number              X              Y              Z
 -------------------------------------------------------------------
    1          8          -0.001233069    0.002227068    0.001598964
    2          8          -0.001720480   -0.000072808   -0.001080042
    3          8           0.001821812    0.000747048    0.000512062
    4          1          -0.000408265   -0.002532479   -0.001369045
    5          1           0.002154082   -0.001940304   -0.000216877
    6          1           0.001157707    0.000620995    0.001030530
    7          1           0.000620686    0.000684983    0.000495090
    8          1          -0.000975376    0.000316062   -0.000222716
    9          1          -0.001653556   -0.000029824   -0.000232497
   10          1           0.000236459   -0.000020739   -0.000515469
 -------------------------------------------------------------------
 Cartesian Forces:  Max     0.002532479 RMS     0.001187630

 GradGradGradGradGradGradGradGradGradGradGradGradGradGradGradGradGradGrad
 Berny optimization.
 Internal  Forces:  Max     0.001742386 RMS     0.000850421
 Search for a local minimum.
 Step number   2 out of a maximum of  38
 All quantities printed in internal units (Hartrees-Bohrs-Radians)
 Update second derivatives using D2CorX and points  1  2
 Trust test= 1.15D+00 RLast= 8.36D-02 DXMaxT set to 3.00D-01
     Eigenvalues ---    0.00230   0.00230   0.00550   0.00551   0.02993
     Eigenvalues ---    0.03010   0.03645   0.10715   0.12979   0.14015
     Eigenvalues ---    0.14522   0.16000   0.16000   0.16000   0.16068
     Eigenvalues ---    0.24808   0.25000   0.41862   0.45305   0.53432
     Eigenvalues ---    0.53475   0.53567   0.53595   0.591371000.00000
     Eigenvalues --- 1000.000001000.000001000.00000
 RFO step:  Lambda=-1.37366029D-04.
 Quartic linear search produced a step of  0.19967.
 Iteration  1 RMS(Cart)=  0.01377800 RMS(Int)=  0.00018444
 Iteration  2 RMS(Cart)=  0.00012050 RMS(Int)=  0.00012480
 Iteration  3 RMS(Cart)=  0.00000001 RMS(Int)=  0.00012480
 Variable       Old X    -DE/DX   Delta X   Delta X   Delta X     New X
                                 (Linear)    (Quad)   (Total)
    R1        1.97173  -0.00147   0.00274  -0.00542  -0.00267   1.96905
    R2        1.97172  -0.00147   0.00274  -0.00541  -0.00267   1.96905
    R3        1.83451   0.00050   0.00441  -0.00087   0.00355   1.83805
    R4        2.75370   0.00091   0.00576   0.00596   0.01173   2.76542
    R5        1.82884   0.00053  -0.00049   0.00141   0.00092   1.82976
    R6        1.82979   0.00052  -0.00055   0.00141   0.00087   1.83065
    R7        2.75373   0.00091   0.00576   0.00596   0.01172   2.76545
    R8        1.82979   0.00052  -0.00055   0.00141   0.00087   1.83065
    R9        1.82884   0.00053  -0.00049   0.00141   0.00092   1.82976
    A1        2.05705   0.00020   0.00217  -0.00112   0.00104   2.05809
    A2        1.94203  -0.00019   0.00014  -0.00373  -0.00360   1.93842
    A3        1.94202  -0.00019   0.00014  -0.00373  -0.00360   1.93842
    A4        2.13008   0.00174   0.00463   0.01572   0.02012   2.15021
    A5        2.09555   0.00049   0.00228   0.00740   0.00945   2.10500
    A6        1.86818  -0.00140  -0.00625  -0.00202  -0.00855   1.85963
    A7        2.09550   0.00049   0.00228   0.00741   0.00946   2.10496
    A8        2.13006   0.00174   0.00464   0.01572   0.02013   2.15019
    A9        1.86818  -0.00140  -0.00625  -0.00202  -0.00855   1.85963
   A10        2.98965   0.00088   0.00109   0.00374   0.00483   2.99448
   A11        2.98960   0.00088   0.00109   0.00375   0.00484   2.99444
    D1        3.09752   0.00012  -0.00329  -0.00044  -0.00374   3.09378
    D2       -0.91244  -0.00017  -0.00089  -0.01085  -0.01174  -0.92418
    D3       -3.09733  -0.00012   0.00327   0.00040   0.00367  -3.09366
    D4        0.91262   0.00017   0.00088   0.01080   0.01168   0.92430
    D5        2.60568  -0.00041  -0.00123  -0.01520  -0.01655   2.58912
    D6       -1.24063   0.00042  -0.00251   0.01854   0.01616  -1.22446
    D7        1.24061  -0.00042   0.00248  -0.01864  -0.01629   1.22431
    D8       -2.60582   0.00041   0.00120   0.01512   0.01645  -2.58937
         Item               Value     Threshold  Converged?
 Maximum Force            0.001742     0.000450     NO 
 RMS     Force            0.000850     0.000300     NO 
 Maximum Displacement     0.038881     0.001800     NO 
 RMS     Displacement     0.013726     0.001200     NO 
 Predicted change in Energy=-8.907961D-05
 GradGradGradGradGradGradGradGradGradGradGradGradGradGradGradGradGradGrad

                          Input orientation:                          
 ---------------------------------------------------------------------
 Center     Atomic     Atomic              Coordinates (Angstroms)
 Number     Number      Type              X           Y           Z
 ---------------------------------------------------------------------
    1          8             0        0.211398   -0.690921   -0.114595
    2          8             0        1.893830    0.809986    0.962748
    3          8             0       -2.110788   -0.116724   -0.836913
    4          1             0        0.853690    0.001444    0.325642
    5          1             0       -0.739842   -0.367293   -0.390491
    6          1             0        2.024830    1.750424    0.773123
    7          1             0        2.112960    0.683927    1.897921
    8          1             0       -2.863697   -0.467781   -0.338572
    9          1             0       -2.399426    0.726644   -1.215015
   10          1             0        0.648770   -1.156281   -0.848220
 ---------------------------------------------------------------------
                    Distance matrix (angstroms):
                    1          2          3          4          5
     1  O    0.000000
     2  O    2.498793   0.000000
     3  O    2.498798   4.487153   0.000000
     4  H    1.041977   1.463399   3.186476   0.000000
     5  H    1.041975   3.186451   1.463411   1.785542   0.000000
     6  H    3.168082   0.968267   4.814747   2.151915   3.671803
     7  H    3.091336   0.968740   5.095135   2.126876   3.805308
     8  H    3.091306   5.095115   0.968740   3.805302   2.126865
     9  H    3.168093   4.814732   0.968268   3.671826   2.151919
    10  H    0.972656   2.948896   2.948892   1.661406   1.661402
                    6          7          8          9         10
     6  H    0.000000
     7  H    1.552531   0.000000
     8  H    5.482153   5.576329   0.000000
     9  H    4.957304   5.482136   1.552531   0.000000
    10  H    3.601559   3.615453   3.615411   3.601589   0.000000
 Stoichiometry    H7O3(1+)
 Framework group  C1[X(H7O3)]
 Deg. of freedom    24
 Full point group                 C1
 Largest Abelian subgroup         C1      NOp   1
 Largest concise Abelian subgroup C1      NOp   1
                         Standard orientation:                         
 ---------------------------------------------------------------------
 Center     Atomic     Atomic              Coordinates (Angstroms)
 Number     Number      Type              X           Y           Z
 ---------------------------------------------------------------------
    1          8             0        0.000000    0.772274    0.035872
    2          8             0       -2.243574   -0.326745   -0.014139
    3          8             0        2.243579   -0.326745   -0.014149
    4          1             0       -0.892779    0.235807    0.006446
    5          1             0        0.892763    0.235787    0.006430
    6          1             0       -2.478658   -1.123166   -0.512126
    7          1             0       -2.788172   -0.331467    0.787015
    8          1             0        2.788158   -0.331412    0.787019
    9          1             0        2.478645   -1.123223   -0.512053
   10          1             0        0.000004    1.487404   -0.623407
 ---------------------------------------------------------------------
 Rotational constants (GHZ):     24.9687456      2.6202413      2.4211543
 Standard basis: Aug-CC-pVDZ (5D, 7F)
 There are   132 symmetry adapted basis functions of A   symmetry.
 Integral buffers will be    131072 words long.
 Raffenetti 1 integral format.
 Two-electron integral symmetry is turned on.
   132 basis functions,   206 primitive gaussians,   138 cartesian basis functions
    15 alpha electrons       15 beta electrons
       nuclear repulsion energy        88.9150175408 Hartrees.
 NAtoms=   10 NActive=   10 NUniq=   10 SFac= 7.50D-01 NAtFMM=   80 NAOKFM=F Big=F
 One-electron integrals computed using PRISM.
 NBasis=   132 RedAO= T  NBF=   132
 NBsUse=   132 1.00D-06 NBFU=   132
 Initial guess read from the read-write file:
 Initial guess orbital symmetries:
       Occupied  (A) (A) (A) (A) (A) (A) (A) (A) (A) (A) (A) (A)
                 (A) (A) (A)
       Virtual   (A) (A) (A) (A) (A) (A) (A) (A) (A) (A) (A) (A)
                 (A) (A) (A) (A) (A) (A) (A) (A) (A) (A) (A) (A)
                 (A) (A) (A) (A) (A) (A) (A) (A) (A) (A) (A) (A)
                 (A) (A) (A) (A) (A) (A) (A) (A) (A) (A) (A) (A)
                 (A) (A) (A) (A) (A) (A) (A) (A) (A) (A) (A) (A)
                 (A) (A) (A) (A) (A) (A) (A) (A) (A) (A) (A) (A)
                 (A) (A) (A) (A) (A) (A) (A) (A) (A) (A) (A) (A)
                 (A) (A) (A) (A) (A) (A) (A) (A) (A) (A) (A) (A)
                 (A) (A) (A) (A) (A) (A) (A) (A) (A) (A) (A) (A)
                 (A) (A) (A) (A) (A) (A) (A) (A) (A)
 Harris functional with IExCor=  205 diagonalized for initial guess.
 ExpMin= 2.97D-02 ExpMax= 1.17D+04 ExpMxC= 4.01D+02 IAcc=3 IRadAn=         5 AccDes= 0.00D+00
 HarFok:  IExCor= 205 AccDes= 0.00D+00 IRadAn=         5 IDoV=1
 ScaDFX=  1.000000  1.000000  1.000000  1.000000
 Requested convergence on RMS density matrix=1.00D-08 within 128 cycles.
 Requested convergence on MAX density matrix=1.00D-06.
 Requested convergence on             energy=1.00D-06.
 No special actions if energy rises.
 Keep R1 integrals in memory in canonical form, NReq=    48246615.
 SCF Done:  E(RHF) =  -228.479247270     A.U. after    9 cycles
             Convg  =    0.4818D-08             -V/T =  2.0017
             S**2   =   0.0000
 ExpMin= 2.97D-02 ExpMax= 1.17D+04 ExpMxC= 4.01D+02 IAcc=3 IRadAn=         5 AccDes= 0.00D+00
 HarFok:  IExCor= 205 AccDes= 0.00D+00 IRadAn=         5 IDoV=1
 ScaDFX=  1.000000  1.000000  1.000000  1.000000
 Range of M.O.s used for correlation:     4   132
 NBasis=   132 NAE=    15 NBE=    15 NFC=     3 NFV=     0
 NROrb=    129 NOA=    12 NOB=    12 NVA=   117 NVB=   117
 Fully direct method using O(ONN) memory.
 JobTyp=1 Pass  1:  I=   4 to  15 NPSUse=  1 ParTrn=F ParDer=F DoDerP=T.
 Spin components of T(2) and E(2):
     alpha-alpha T2 =       0.2267266185D-01 E2=     -0.8510921336D-01
     alpha-beta  T2 =       0.1271739215D+00 E2=     -0.4941609022D+00
     beta-beta   T2 =       0.2267266185D-01 E2=     -0.8510921336D-01
 ANorm=    0.1082829278D+01
 E2 =    -0.6643793289D+00 EUMP2 =    -0.22914362659850D+03
 DoAtom=TTTTTTTTTT
          Differentiating once with respect to electric field.
                with respect to dipole field.
          Differentiating once with respect to nuclear coordinates.
          Store integrals in memory, NReq=    46819552.
          There are   1 degrees of freedom in the 1st order CPHF.
     1 vectors were produced by pass  0.
 AX will form   1 AO Fock derivatives at one time.
     1 vectors were produced by pass  1.
     1 vectors were produced by pass  2.
     1 vectors were produced by pass  3.
     1 vectors were produced by pass  4.
     1 vectors were produced by pass  5.
     1 vectors were produced by pass  6.
     1 vectors were produced by pass  7.
     1 vectors were produced by pass  8.
     1 vectors were produced by pass  9.
     1 vectors were produced by pass 10.
 Inv2:  IOpt= 1 Iter= 1 AM= 2.69D-16 Conv= 1.00D-12.
 Inverted reduced A of dimension   11 with in-core refinement.
 End of Minotr Frequency-dependent properties file   721 does not exist.
 ***** Axes restored to original set *****
 -------------------------------------------------------------------
 Center     Atomic                   Forces (Hartrees/Bohr)
 Number     Number              X              Y              Z
 -------------------------------------------------------------------
    1          8          -0.000284300    0.001128893    0.000053227
    2          8          -0.001078431    0.000642803   -0.000095463
    3          8           0.000471882    0.001002066    0.000601185
    4          1          -0.000769191   -0.001895463   -0.001281276
    5          1           0.002070684   -0.001239061   -0.000004366
    6          1           0.000603119    0.000062497    0.000264747
    7          1           0.000281415   -0.000020239    0.000066053
    8          1          -0.000206978   -0.000132857   -0.000153655
    9          1          -0.000570386   -0.000209615   -0.000262434
   10          1          -0.000517814    0.000660976    0.000811982
 -------------------------------------------------------------------
 Cartesian Forces:  Max     0.002070684 RMS     0.000787169

 GradGradGradGradGradGradGradGradGradGradGradGradGradGradGradGradGradGrad
 Berny optimization.
 Internal  Forces:  Max     0.001839852 RMS     0.000657607
 Search for a local minimum.
 Step number   3 out of a maximum of  38
 All quantities printed in internal units (Hartrees-Bohrs-Radians)
 Update second derivatives using D2CorX and points  1  2  3
 Trust test= 1.51D+00 RLast= 5.37D-02 DXMaxT set to 3.00D-01
     Eigenvalues ---    0.00230   0.00230   0.00539   0.00551   0.01579
     Eigenvalues ---    0.02669   0.03626   0.09142   0.12979   0.13822
     Eigenvalues ---    0.14508   0.16000   0.16000   0.16022   0.16811
     Eigenvalues ---    0.24566   0.25000   0.41862   0.44968   0.53432
     Eigenvalues ---    0.53490   0.53567   0.54294   0.669491000.00000
     Eigenvalues --- 1000.000001000.000001000.00000
 RFO step:  Lambda=-7.94928609D-05.
 Quartic linear search produced a step of  1.12445.
 Iteration  1 RMS(Cart)=  0.01952615 RMS(Int)=  0.00078103
 Iteration  2 RMS(Cart)=  0.00054082 RMS(Int)=  0.00064592
 Iteration  3 RMS(Cart)=  0.00000012 RMS(Int)=  0.00064592
 Variable       Old X    -DE/DX   Delta X   Delta X   Delta X     New X
                                 (Linear)    (Quad)   (Total)
    R1        1.96905  -0.00184  -0.00301  -0.00443  -0.00743   1.96162
    R2        1.96905  -0.00184  -0.00301  -0.00443  -0.00743   1.96161
    R3        1.83805  -0.00116   0.00399  -0.00237   0.00162   1.83967
    R4        2.76542   0.00034   0.01319   0.00307   0.01625   2.78168
    R5        1.82976   0.00009   0.00104  -0.00072   0.00031   1.83007
    R6        1.83065   0.00013   0.00097  -0.00059   0.00038   1.83103
    R7        2.76545   0.00034   0.01318   0.00306   0.01624   2.78168
    R8        1.83065   0.00013   0.00097  -0.00059   0.00038   1.83103
    R9        1.82976   0.00009   0.00104  -0.00072   0.00031   1.83007
    A1        2.05809  -0.00043   0.00117  -0.00642  -0.00530   2.05279
    A2        1.93842   0.00006  -0.00405   0.00007  -0.00404   1.93438
    A3        1.93842   0.00006  -0.00405   0.00007  -0.00404   1.93438
    A4        2.15021   0.00087   0.02263   0.01038   0.03177   2.18198
    A5        2.10500   0.00004   0.01063   0.00483   0.01420   2.11920
    A6        1.85963  -0.00034  -0.00961   0.00561  -0.00543   1.85421
    A7        2.10496   0.00004   0.01064   0.00483   0.01421   2.11918
    A8        2.15019   0.00087   0.02264   0.01039   0.03178   2.18198
    A9        1.85963  -0.00034  -0.00961   0.00561  -0.00543   1.85420
   A10        2.99448   0.00067   0.00543   0.00320   0.00863   3.00311
   A11        2.99444   0.00067   0.00544   0.00321   0.00865   3.00308
    D1        3.09378   0.00011  -0.00420  -0.00212  -0.00635   3.08743
    D2       -0.92418  -0.00014  -0.01320  -0.00801  -0.02119  -0.94536
    D3       -3.09366  -0.00011   0.00413   0.00214   0.00630  -3.08736
    D4        0.92430   0.00014   0.01313   0.00803   0.02114   0.94544
    D5        2.58912  -0.00042  -0.01861  -0.00975  -0.02894   2.56018
    D6       -1.22446   0.00046   0.01817   0.02933   0.04808  -1.17638
    D7        1.22431  -0.00046  -0.01832  -0.02926  -0.04816   1.17615
    D8       -2.58937   0.00043   0.01850   0.00981   0.02890  -2.56047
         Item               Value     Threshold  Converged?
 Maximum Force            0.001840     0.000450     NO 
 RMS     Force            0.000658     0.000300     NO 
 Maximum Displacement     0.042730     0.001800     NO 
 RMS     Displacement     0.019288     0.001200     NO 
 Predicted change in Energy=-9.557199D-05
 GradGradGradGradGradGradGradGradGradGradGradGradGradGradGradGradGradGrad

                          Input orientation:                          
 ---------------------------------------------------------------------
 Center     Atomic     Atomic              Coordinates (Angstroms)
 Number     Number      Type              X           Y           Z
 ---------------------------------------------------------------------
    1          8             0        0.211134   -0.697915   -0.110404
    2          8             0        1.884455    0.819739    0.970234
    3          8             0       -2.114177   -0.105576   -0.826730
    4          1             0        0.848859   -0.006375    0.328473
    5          1             0       -0.736124   -0.373137   -0.383812
    6          1             0        2.047347    1.754875    0.778270
    7          1             0        2.135571    0.685524    1.896395
    8          1             0       -2.876607   -0.474462   -0.356122
    9          1             0       -2.418111    0.721604   -1.228304
   10          1             0        0.649379   -1.150851   -0.852371
 ---------------------------------------------------------------------
                    Distance matrix (angstroms):
                    1          2          3          4          5
     1  O    0.000000
     2  O    2.504208   0.000000
     3  O    2.504209   4.480441   0.000000
     4  H    1.038043   1.472000   3.181810   0.000000
     5  H    1.038042   3.181796   1.472004   1.775960   0.000000
     6  H    3.190235   0.968433   4.832762   2.177314   3.691419
     7  H    3.105577   0.968942   5.108974   2.143067   3.816640
     8  H    3.105552   5.109001   0.968942   3.816657   2.143059
     9  H    3.190246   4.832730   0.968434   3.691423   2.177316
    10  H    0.973512   2.954747   2.954742   1.656505   1.656504
                    6          7          8          9         10
     6  H    0.000000
     7  H    1.549677   0.000000
     8  H    5.522872   5.616167   0.000000
     9  H    5.003429   5.522778   1.549674   0.000000
    10  H    3.613385   3.624467   3.624410   3.613435   0.000000
 Stoichiometry    H7O3(1+)
 Framework group  C1[X(H7O3)]
 Deg. of freedom    24
 Full point group                 C1
 Largest Abelian subgroup         C1      NOp   1
 Largest concise Abelian subgroup C1      NOp   1
                         Standard orientation:                         
 ---------------------------------------------------------------------
 Center     Atomic     Atomic              Coordinates (Angstroms)
 Number     Number      Type              X           Y           Z
 ---------------------------------------------------------------------
    1          8             0        0.000001    0.782769    0.035314
    2          8             0       -2.240220   -0.335414   -0.010841
    3          8             0        2.240220   -0.335420   -0.010854
    4          1             0       -0.887985    0.245870    0.007863
    5          1             0        0.887975    0.245853    0.007850
    6          1             0       -2.501734   -1.118016   -0.517800
    7          1             0       -2.808066   -0.318851    0.774096
    8          1             0        2.808101   -0.318725    0.774054
    9          1             0        2.501695   -1.118124   -0.517676
   10          1             0        0.000004    1.486512   -0.637346
 ---------------------------------------------------------------------
 Rotational constants (GHZ):     24.4857701      2.6210063      2.4168607
 Standard basis: Aug-CC-pVDZ (5D, 7F)
 There are   132 symmetry adapted basis functions of A   symmetry.
 Integral buffers will be    131072 words long.
 Raffenetti 1 integral format.
 Two-electron integral symmetry is turned on.
   132 basis functions,   206 primitive gaussians,   138 cartesian basis functions
    15 alpha electrons       15 beta electrons
       nuclear repulsion energy        88.8017347173 Hartrees.
 NAtoms=   10 NActive=   10 NUniq=   10 SFac= 7.50D-01 NAtFMM=   80 NAOKFM=F Big=F
 One-electron integrals computed using PRISM.
 NBasis=   132 RedAO= T  NBF=   132
 NBsUse=   132 1.00D-06 NBFU=   132
 Initial guess read from the read-write file:
 Initial guess orbital symmetries:
       Occupied  (A) (A) (A) (A) (A) (A) (A) (A) (A) (A) (A) (A)
                 (A) (A) (A)
       Virtual   (A) (A) (A) (A) (A) (A) (A) (A) (A) (A) (A) (A)
                 (A) (A) (A) (A) (A) (A) (A) (A) (A) (A) (A) (A)
                 (A) (A) (A) (A) (A) (A) (A) (A) (A) (A) (A) (A)
                 (A) (A) (A) (A) (A) (A) (A) (A) (A) (A) (A) (A)
                 (A) (A) (A) (A) (A) (A) (A) (A) (A) (A) (A) (A)
                 (A) (A) (A) (A) (A) (A) (A) (A) (A) (A) (A) (A)
                 (A) (A) (A) (A) (A) (A) (A) (A) (A) (A) (A) (A)
                 (A) (A) (A) (A) (A) (A) (A) (A) (A) (A) (A) (A)
                 (A) (A) (A) (A) (A) (A) (A) (A) (A) (A) (A) (A)
                 (A) (A) (A) (A) (A) (A) (A) (A) (A)
 Harris functional with IExCor=  205 diagonalized for initial guess.
 ExpMin= 2.97D-02 ExpMax= 1.17D+04 ExpMxC= 4.01D+02 IAcc=3 IRadAn=         5 AccDes= 0.00D+00
 HarFok:  IExCor= 205 AccDes= 0.00D+00 IRadAn=         5 IDoV=1
 ScaDFX=  1.000000  1.000000  1.000000  1.000000
 Requested convergence on RMS density matrix=1.00D-08 within 128 cycles.
 Requested convergence on MAX density matrix=1.00D-06.
 Requested convergence on             energy=1.00D-06.
 No special actions if energy rises.
 Keep R1 integrals in memory in canonical form, NReq=    48246615.
 SCF Done:  E(RHF) =  -228.479787411     A.U. after    9 cycles
             Convg  =    0.7312D-08             -V/T =  2.0017
             S**2   =   0.0000
 ExpMin= 2.97D-02 ExpMax= 1.17D+04 ExpMxC= 4.01D+02 IAcc=3 IRadAn=         5 AccDes= 0.00D+00
 HarFok:  IExCor= 205 AccDes= 0.00D+00 IRadAn=         5 IDoV=1
 ScaDFX=  1.000000  1.000000  1.000000  1.000000
 Range of M.O.s used for correlation:     4   132
 NBasis=   132 NAE=    15 NBE=    15 NFC=     3 NFV=     0
 NROrb=    129 NOA=    12 NOB=    12 NVA=   117 NVB=   117
 Fully direct method using O(ONN) memory.
 JobTyp=1 Pass  1:  I=   4 to  15 NPSUse=  1 ParTrn=F ParDer=F DoDerP=T.
 Spin components of T(2) and E(2):
     alpha-alpha T2 =       0.2264428032D-01 E2=     -0.8502462382D-01
     alpha-beta  T2 =       0.1270721898D+00 E2=     -0.4939068298D+00
     beta-beta   T2 =       0.2264428032D-01 E2=     -0.8502462382D-01
 ANorm=    0.1082756090D+01
 E2 =    -0.6639560774D+00 EUMP2 =    -0.22914374348836D+03
 DoAtom=TTTTTTTTTT
          Differentiating once with respect to electric field.
                with respect to dipole field.
          Differentiating once with respect to nuclear coordinates.
          Store integrals in memory, NReq=    46819552.
          There are   1 degrees of freedom in the 1st order CPHF.
     1 vectors were produced by pass  0.
 AX will form   1 AO Fock derivatives at one time.
     1 vectors were produced by pass  1.
     1 vectors were produced by pass  2.
     1 vectors were produced by pass  3.
     1 vectors were produced by pass  4.
     1 vectors were produced by pass  5.
     1 vectors were produced by pass  6.
     1 vectors were produced by pass  7.
     1 vectors were produced by pass  8.
     1 vectors were produced by pass  9.
     1 vectors were produced by pass 10.
 Inv2:  IOpt= 1 Iter= 1 AM= 2.66D-16 Conv= 1.00D-12.
 Inverted reduced A of dimension   11 with in-core refinement.
 End of Minotr Frequency-dependent properties file   721 does not exist.
 ***** Axes restored to original set *****
 -------------------------------------------------------------------
 Center     Atomic                   Forces (Hartrees/Bohr)
 Number     Number              X              Y              Z
 -------------------------------------------------------------------
    1          8           0.000470808   -0.000273589   -0.000905575
    2          8          -0.000253485    0.000936360    0.000730479
    3          8          -0.000717821    0.000829556    0.000521699
    4          1          -0.000478137   -0.000602162   -0.000799267
    5          1           0.001076842   -0.000242905   -0.000099746
    6          1          -0.000025568   -0.000300384   -0.000396596
    7          1          -0.000092527   -0.000526963   -0.000228314
    8          1           0.000412552   -0.000410056   -0.000001254
    9          1           0.000410074   -0.000199941   -0.000201033
   10          1          -0.000802738    0.000790084    0.001379606
 -------------------------------------------------------------------
 Cartesian Forces:  Max     0.001379606 RMS     0.000601963

 GradGradGradGradGradGradGradGradGradGradGradGradGradGradGradGradGradGrad
 Berny optimization.
 Internal  Forces:  Max     0.001780436 RMS     0.000554302
 Search for a local minimum.
 Step number   4 out of a maximum of  38
 All quantities printed in internal units (Hartrees-Bohrs-Radians)
 Update second derivatives using D2CorX and points  1  2  3  4
 Trust test= 1.22D+00 RLast= 1.03D-01 DXMaxT set to 3.09D-01
     Eigenvalues ---    0.00229   0.00230   0.00507   0.00551   0.01001
     Eigenvalues ---    0.02068   0.03713   0.09271   0.12979   0.13893
     Eigenvalues ---    0.14458   0.16000   0.16000   0.16016   0.17875
     Eigenvalues ---    0.24543   0.25000   0.41862   0.42249   0.53432
     Eigenvalues ---    0.53492   0.53567   0.54906   0.612051000.00000
     Eigenvalues --- 1000.000001000.000001000.00000
 RFO step:  Lambda=-4.05766834D-05.
 Quartic linear search produced a step of  0.41523.
 Iteration  1 RMS(Cart)=  0.01028033 RMS(Int)=  0.00049082
 Iteration  2 RMS(Cart)=  0.00026062 RMS(Int)=  0.00045477
 Iteration  3 RMS(Cart)=  0.00000003 RMS(Int)=  0.00045477
 Variable       Old X    -DE/DX   Delta X   Delta X   Delta X     New X
                                 (Linear)    (Quad)   (Total)
    R1        1.96162  -0.00114  -0.00309  -0.00196  -0.00505   1.95657
    R2        1.96161  -0.00114  -0.00309  -0.00196  -0.00505   1.95657
    R3        1.83967  -0.00178   0.00067  -0.00231  -0.00164   1.83803
    R4        2.78168  -0.00015   0.00675  -0.00007   0.00668   2.78835
    R5        1.83007  -0.00022   0.00013  -0.00049  -0.00036   1.82971
    R6        1.83103  -0.00017   0.00016  -0.00043  -0.00027   1.83077
    R7        2.78168  -0.00015   0.00674  -0.00007   0.00667   2.78835
    R8        1.83103  -0.00017   0.00016  -0.00043  -0.00027   1.83077
    R9        1.83007  -0.00022   0.00013  -0.00049  -0.00036   1.82971
    A1        2.05279  -0.00090  -0.00220  -0.00597  -0.00820   2.04459
    A2        1.93438   0.00030  -0.00168   0.00146  -0.00026   1.93412
    A3        1.93438   0.00030  -0.00168   0.00146  -0.00026   1.93412
    A4        2.18198  -0.00004   0.01319   0.00379   0.01609   2.19807
    A5        2.11920  -0.00031   0.00590   0.00177   0.00676   2.12596
    A6        1.85421   0.00056  -0.00225   0.00630   0.00304   1.85725
    A7        2.11918  -0.00031   0.00590   0.00177   0.00677   2.12595
    A8        2.18198  -0.00004   0.01320   0.00379   0.01609   2.19807
    A9        1.85420   0.00056  -0.00225   0.00630   0.00304   1.85724
   A10        3.00311   0.00047   0.00358   0.00225   0.00583   3.00894
   A11        3.00308   0.00047   0.00359   0.00225   0.00584   3.00892
    D1        3.08743   0.00002  -0.00264  -0.00738  -0.01003   3.07740
    D2       -0.94536  -0.00008  -0.00880  -0.00928  -0.01806  -0.96343
    D3       -3.08736  -0.00002   0.00261   0.00741   0.01004  -3.07732
    D4        0.94544   0.00008   0.00878   0.00931   0.01807   0.96350
    D5        2.56018  -0.00029  -0.01202  -0.00972  -0.02211   2.53807
    D6       -1.17638   0.00031   0.01997   0.01759   0.03793  -1.13846
    D7        1.17615  -0.00031  -0.02000  -0.01752  -0.03788   1.13827
    D8       -2.56047   0.00029   0.01200   0.00980   0.02217  -2.53830
         Item               Value     Threshold  Converged?
 Maximum Force            0.001780     0.000450     NO 
 RMS     Force            0.000554     0.000300     NO 
 Maximum Displacement     0.022284     0.001800     NO 
 RMS     Displacement     0.010252     0.001200     NO 
 Predicted change in Energy=-3.169367D-05
 GradGradGradGradGradGradGradGradGradGradGradGradGradGradGradGradGradGrad

                          Input orientation:                          
 ---------------------------------------------------------------------
 Center     Atomic     Atomic              Coordinates (Angstroms)
 Number     Number      Type              X           Y           Z
 ---------------------------------------------------------------------
    1          8             0        0.212450   -0.704519   -0.109929
    2          8             0        1.872663    0.826536    0.975130
    3          8             0       -2.113196   -0.095829   -0.816086
    4          1             0        0.844918   -0.012226    0.329052
    5          1             0       -0.732048   -0.377139   -0.379629
    6          1             0        2.054442    1.756577    0.776457
    7          1             0        2.143247    0.685076    1.894558
    8          1             0       -2.879683   -0.477363   -0.362761
    9          1             0       -2.421638    0.720822   -1.234936
   10          1             0        0.650572   -1.148511   -0.856226
 ---------------------------------------------------------------------
                    Distance matrix (angstroms):
                    1          2          3          4          5
     1  O    0.000000
     2  O    2.505552   0.000000
     3  O    2.505552   4.466126   0.000000
     4  H    1.035371   1.475533   3.173133   0.000000
     5  H    1.035370   3.173125   1.475534   1.766979   0.000000
     6  H    3.199314   0.968241   4.830818   2.189014   3.695105
     7  H    3.110775   0.968800   5.106340   2.150045   3.816746
     8  H    3.110757   5.106359   0.968801   3.816755   2.150039
     9  H    3.199322   4.830796   0.968242   3.695106   2.189014
    10  H    0.972646   2.957732   2.957730   1.653421   1.653420
                    6          7          8          9         10
     6  H    0.000000
     7  H    1.551177   0.000000
     8  H    5.534790   5.628195   0.000000
     9  H    5.015355   5.534725   1.551175   0.000000
    10  H    3.616081   3.627249   3.627210   3.616117   0.000000
 Stoichiometry    H7O3(1+)
 Framework group  C1[X(H7O3)]
 Deg. of freedom    24
 Full point group                 C1
 Largest Abelian subgroup         C1      NOp   1
 Largest concise Abelian subgroup C1      NOp   1
                         Standard orientation:                         
 ---------------------------------------------------------------------
 Center     Atomic     Atomic              Coordinates (Angstroms)
 Number     Number      Type              X           Y           Z
 ---------------------------------------------------------------------
    1          8             0        0.000001    0.792671    0.034497
    2          8             0       -2.233063   -0.342848   -0.008066
    3          8             0        2.233063   -0.342852   -0.008075
    4          1             0       -0.883492    0.253461    0.008333
    5          1             0        0.883487    0.253449    0.008322
    6          1             0       -2.507691   -1.113286   -0.526231
    7          1             0       -2.814085   -0.312720    0.766582
    8          1             0        2.814110   -0.312634    0.766552
    9          1             0        2.507663   -1.113364   -0.526146
   10          1             0        0.000002    1.489325   -0.644261
 ---------------------------------------------------------------------
 Rotational constants (GHZ):     24.0206753      2.6334424      2.4228106
 Standard basis: Aug-CC-pVDZ (5D, 7F)
 There are   132 symmetry adapted basis functions of A   symmetry.
 Integral buffers will be    131072 words long.
 Raffenetti 1 integral format.
 Two-electron integral symmetry is turned on.
   132 basis functions,   206 primitive gaussians,   138 cartesian basis functions
    15 alpha electrons       15 beta electrons
       nuclear repulsion energy        88.8157121426 Hartrees.
 NAtoms=   10 NActive=   10 NUniq=   10 SFac= 7.50D-01 NAtFMM=   80 NAOKFM=F Big=F
 One-electron integrals computed using PRISM.
 NBasis=   132 RedAO= T  NBF=   132
 NBsUse=   132 1.00D-06 NBFU=   132
 Initial guess read from the read-write file:
 Initial guess orbital symmetries:
       Occupied  (A) (A) (A) (A) (A) (A) (A) (A) (A) (A) (A) (A)
                 (A) (A) (A)
       Virtual   (A) (A) (A) (A) (A) (A) (A) (A) (A) (A) (A) (A)
                 (A) (A) (A) (A) (A) (A) (A) (A) (A) (A) (A) (A)
                 (A) (A) (A) (A) (A) (A) (A) (A) (A) (A) (A) (A)
                 (A) (A) (A) (A) (A) (A) (A) (A) (A) (A) (A) (A)
                 (A) (A) (A) (A) (A) (A) (A) (A) (A) (A) (A) (A)
                 (A) (A) (A) (A) (A) (A) (A) (A) (A) (A) (A) (A)
                 (A) (A) (A) (A) (A) (A) (A) (A) (A) (A) (A) (A)
                 (A) (A) (A) (A) (A) (A) (A) (A) (A) (A) (A) (A)
                 (A) (A) (A) (A) (A) (A) (A) (A) (A) (A) (A) (A)
                 (A) (A) (A) (A) (A) (A) (A) (A) (A)
 Harris functional with IExCor=  205 diagonalized for initial guess.
 ExpMin= 2.97D-02 ExpMax= 1.17D+04 ExpMxC= 4.01D+02 IAcc=3 IRadAn=         5 AccDes= 0.00D+00
 HarFok:  IExCor= 205 AccDes= 0.00D+00 IRadAn=         5 IDoV=1
 ScaDFX=  1.000000  1.000000  1.000000  1.000000
 Requested convergence on RMS density matrix=1.00D-08 within 128 cycles.
 Requested convergence on MAX density matrix=1.00D-06.
 Requested convergence on             energy=1.00D-06.
 No special actions if energy rises.
 Keep R1 integrals in memory in canonical form, NReq=    48246615.
 SCF Done:  E(RHF) =  -228.480216060     A.U. after    9 cycles
             Convg  =    0.5285D-08             -V/T =  2.0017
             S**2   =   0.0000
 ExpMin= 2.97D-02 ExpMax= 1.17D+04 ExpMxC= 4.01D+02 IAcc=3 IRadAn=         5 AccDes= 0.00D+00
 HarFok:  IExCor= 205 AccDes= 0.00D+00 IRadAn=         5 IDoV=1
 ScaDFX=  1.000000  1.000000  1.000000  1.000000
 Range of M.O.s used for correlation:     4   132
 NBasis=   132 NAE=    15 NBE=    15 NFC=     3 NFV=     0
 NROrb=    129 NOA=    12 NOB=    12 NVA=   117 NVB=   117
 Fully direct method using O(ONN) memory.
 JobTyp=1 Pass  1:  I=   4 to  15 NPSUse=  1 ParTrn=F ParDer=F DoDerP=T.
 Spin components of T(2) and E(2):
     alpha-alpha T2 =       0.2261433058D-01 E2=     -0.8496272942D-01
     alpha-beta  T2 =       0.1269182328D+00 E2=     -0.4936442900D+00
     beta-beta   T2 =       0.2261433058D-01 E2=     -0.8496272942D-01
 ANorm=    0.1082657330D+01
 E2 =    -0.6635697488D+00 EUMP2 =    -0.22914378580837D+03
 DoAtom=TTTTTTTTTT
          Differentiating once with respect to electric field.
                with respect to dipole field.
          Differentiating once with respect to nuclear coordinates.
          Store integrals in memory, NReq=    46819552.
          There are   1 degrees of freedom in the 1st order CPHF.
     1 vectors were produced by pass  0.
 AX will form   1 AO Fock derivatives at one time.
     1 vectors were produced by pass  1.
     1 vectors were produced by pass  2.
     1 vectors were produced by pass  3.
     1 vectors were produced by pass  4.
     1 vectors were produced by pass  5.
     1 vectors were produced by pass  6.
     1 vectors were produced by pass  7.
     1 vectors were produced by pass  8.
     1 vectors were produced by pass  9.
     1 vectors were produced by pass 10.
 Inv2:  IOpt= 1 Iter= 1 AM= 2.79D-16 Conv= 1.00D-12.
 Inverted reduced A of dimension   11 with in-core refinement.
 End of Minotr Frequency-dependent properties file   721 does not exist.
 ***** Axes restored to original set *****
 -------------------------------------------------------------------
 Center     Atomic                   Forces (Hartrees/Bohr)
 Number     Number              X              Y              Z
 -------------------------------------------------------------------
    1          8           0.000292888   -0.000571417   -0.000357016
    2          8          -0.000071642    0.000591759    0.000706485
    3          8          -0.000681720    0.000451056    0.000432284
    4          1           0.000171047    0.000104986   -0.000444923
    5          1           0.000177961    0.000106143   -0.000441204
    6          1          -0.000155567   -0.000295369   -0.000313641
    7          1          -0.000141654   -0.000344999   -0.000250130
    8          1           0.000390351   -0.000221958   -0.000010999
    9          1           0.000425957   -0.000160993   -0.000052552
   10          1          -0.000407621    0.000340792    0.000731695
 -------------------------------------------------------------------
 Cartesian Forces:  Max     0.000731695 RMS     0.000381493

 GradGradGradGradGradGradGradGradGradGradGradGradGradGradGradGradGradGrad
 Berny optimization.
 Internal  Forces:  Max     0.000900594 RMS     0.000320719
 Search for a local minimum.
 Step number   5 out of a maximum of  38
 All quantities printed in internal units (Hartrees-Bohrs-Radians)
 Update second derivatives using D2CorX and points  1  2  3  4  5

 Trust test= 1.34D+00 RLast= 7.49D-02 DXMaxT set to 3.09D-01
     Eigenvalues ---    0.00226   0.00230   0.00405   0.00551   0.00895
     Eigenvalues ---    0.01695   0.03811   0.09327   0.12979   0.13849
     Eigenvalues ---    0.14414   0.15993   0.16000   0.16000   0.16539
     Eigenvalues ---    0.23521   0.25000   0.41490   0.41862   0.53432
     Eigenvalues ---    0.53495   0.53567   0.54905   0.565981000.00000
     Eigenvalues --- 1000.000001000.000001000.00000
 RFO step:  Lambda=-1.22598375D-05.
 Quartic linear search produced a step of  0.68841.
 Iteration  1 RMS(Cart)=  0.00893962 RMS(Int)=  0.00035516
 Iteration  2 RMS(Cart)=  0.00017577 RMS(Int)=  0.00029946
 Iteration  3 RMS(Cart)=  0.00000020 RMS(Int)=  0.00029946
 Variable       Old X    -DE/DX   Delta X   Delta X   Delta X     New X
                                 (Linear)    (Quad)   (Total)
    R1        1.95657  -0.00021  -0.00348   0.00082  -0.00266   1.95391
    R2        1.95657  -0.00021  -0.00348   0.00082  -0.00266   1.95391
    R3        1.83803  -0.00090  -0.00113  -0.00066  -0.00178   1.83625
    R4        2.78835  -0.00022   0.00460  -0.00213   0.00247   2.79082
    R5        1.82971  -0.00025  -0.00025  -0.00039  -0.00064   1.82907
    R6        1.83077  -0.00023  -0.00018  -0.00039  -0.00057   1.83020
    R7        2.78835  -0.00022   0.00459  -0.00213   0.00246   2.79082
    R8        1.83077  -0.00023  -0.00018  -0.00039  -0.00057   1.83020
    R9        1.82971  -0.00025  -0.00025  -0.00040  -0.00065   1.82907
    A1        2.04459  -0.00070  -0.00564  -0.00279  -0.00845   2.03614
    A2        1.93412   0.00027  -0.00018   0.00189   0.00168   1.93580
    A3        1.93412   0.00027  -0.00018   0.00189   0.00169   1.93580
    A4        2.19807  -0.00020   0.01108  -0.00133   0.00915   2.20722
    A5        2.12596  -0.00020   0.00466  -0.00024   0.00381   2.12977
    A6        1.85725   0.00046   0.00209   0.00293   0.00437   1.86161
    A7        2.12595  -0.00020   0.00466  -0.00025   0.00381   2.12976
    A8        2.19807  -0.00020   0.01108  -0.00133   0.00915   2.20722
    A9        1.85724   0.00046   0.00209   0.00293   0.00437   1.86161
   A10        3.00894   0.00043   0.00402   0.00144   0.00546   3.01440
   A11        3.00892   0.00043   0.00402   0.00144   0.00546   3.01439
    D1        3.07740  -0.00005  -0.00691  -0.01122  -0.01813   3.05927
    D2       -0.96343  -0.00004  -0.01244  -0.00920  -0.02163  -0.98506
    D3       -3.07732   0.00005   0.00691   0.01123   0.01815  -3.05917
    D4        0.96350   0.00004   0.01244   0.00921   0.02165   0.98515
    D5        2.53807  -0.00012  -0.01522   0.00057  -0.01487   2.52320
    D6       -1.13846   0.00014   0.02611   0.00472   0.03105  -1.10740
    D7        1.13827  -0.00014  -0.02608  -0.00467  -0.03097   1.10731
    D8       -2.53830   0.00013   0.01526  -0.00051   0.01497  -2.52333
         Item               Value     Threshold  Converged?
 Maximum Force            0.000901     0.000450     NO 
 RMS     Force            0.000321     0.000300     NO 
 Maximum Displacement     0.023104     0.001800     NO 
 RMS     Displacement     0.009052     0.001200     NO 
 Predicted change in Energy=-1.294358D-05
 GradGradGradGradGradGradGradGradGradGradGradGradGradGradGradGradGradGrad

                          Input orientation:                          
 ---------------------------------------------------------------------
 Center     Atomic     Atomic              Coordinates (Angstroms)
 Number     Number      Type              X           Y           Z
 ---------------------------------------------------------------------
    1          8             0        0.215563   -0.711469   -0.113277
    2          8             0        1.860437    0.831304    0.979290
    3          8             0       -2.110684   -0.087658   -0.805296
    4          1             0        0.843044   -0.017823    0.327410
    5          1             0       -0.727700   -0.381303   -0.378474
    6          1             0        2.056047    1.756351    0.772273
    7          1             0        2.139826    0.686642    1.895261
    8          1             0       -2.878741   -0.474726   -0.360038
    9          1             0       -2.419497    0.720672   -1.238963
   10          1             0        0.653433   -1.148564   -0.862558
 ---------------------------------------------------------------------
                    Distance matrix (angstroms):
                    1          2          3          4          5
     1  O    0.000000
     2  O    2.505885   0.000000
     3  O    2.505884   4.449611   0.000000
     4  H    1.033964   1.476839   3.164239   0.000000
     5  H    1.033965   3.164236   1.476838   1.760007   0.000000
     6  H    3.203391   0.967900   4.821902   2.194760   3.693647
     7  H    3.113154   0.968498   5.095035   2.153154   3.812228
     8  H    3.113142   5.095029   0.968498   3.812221   2.153148
     9  H    3.203394   4.821900   0.967900   3.693653   2.194759
    10  H    0.971702   2.961273   2.961273   1.652438   1.652439
                    6          7          8          9         10
     6  H    0.000000
     7  H    1.553189   0.000000
     8  H    5.532808   5.623270   0.000000
     9  H    5.014797   5.532806   1.553188   0.000000
    10  H    3.616425   3.630828   3.630818   3.616437   0.000000
 Stoichiometry    H7O3(1+)
 Framework group  C1[X(H7O3)]
 Deg. of freedom    24
 Full point group                 C1
 Largest Abelian subgroup         C1      NOp   1
 Largest concise Abelian subgroup C1      NOp   1
                         Standard orientation:                         
 ---------------------------------------------------------------------
 Center     Atomic     Atomic              Coordinates (Angstroms)
 Number     Number      Type              X           Y           Z
 ---------------------------------------------------------------------
    1          8             0        0.000001    0.802831    0.034360
    2          8             0       -2.224806   -0.349587   -0.005993
    3          8             0        2.224806   -0.349587   -0.005995
    4          1             0       -0.880004    0.260628    0.008117
    5          1             0        0.880003    0.260623    0.008108
    6          1             0       -2.507400   -1.106688   -0.538693
    7          1             0       -2.811638   -0.317146    0.763789
    8          1             0        2.811632   -0.317132    0.763790
    9          1             0        2.507397   -1.106707   -0.538671
   10          1             0        0.000000    1.497171   -0.645416
 ---------------------------------------------------------------------
 Rotational constants (GHZ):     23.5342577      2.6500389      2.4321934
 Standard basis: Aug-CC-pVDZ (5D, 7F)
 There are   132 symmetry adapted basis functions of A   symmetry.
 Integral buffers will be    131072 words long.
 Raffenetti 1 integral format.
 Two-electron integral symmetry is turned on.
   132 basis functions,   206 primitive gaussians,   138 cartesian basis functions
    15 alpha electrons       15 beta electrons
       nuclear repulsion energy        88.8609003473 Hartrees.
 NAtoms=   10 NActive=   10 NUniq=   10 SFac= 7.50D-01 NAtFMM=   80 NAOKFM=F Big=F
 One-electron integrals computed using PRISM.
 NBasis=   132 RedAO= T  NBF=   132
 NBsUse=   132 1.00D-06 NBFU=   132
 Initial guess read from the read-write file:
 Initial guess orbital symmetries:
       Occupied  (A) (A) (A) (A) (A) (A) (A) (A) (A) (A) (A) (A)
                 (A) (A) (A)
[...]
 Warning -- explicit consideration of  11 degrees of freedom as
           vibrations may cause significant error
 Vibrational temperatures:    103.54   124.86   167.52   226.46   295.41
          (Kelvin)            478.77   547.53   549.94   570.76   684.94
                              821.33  1568.59  1762.48  2303.92  2342.42
                             2389.35  2437.95  3658.24  3840.21  5437.53
                             5438.04  5450.72  5608.92  5609.75
 
 Zero-point correction=                           0.083001 (Hartree/Particle)
 Thermal correction to Energy=                    0.091090
 Thermal correction to Enthalpy=                  0.092035
 Thermal correction to Gibbs Free Energy=         0.051924
 Sum of electronic and zero-point Energies=           -229.060841
 Sum of electronic and thermal Energies=              -229.052752
 Sum of electronic and thermal Enthalpies=            -229.051808
 Sum of electronic and thermal Free Energies=         -229.091918
 
                     E (Thermal)             CV                S
                      KCal/Mol        Cal/Mol-Kelvin    Cal/Mol-Kelvin
 Total                   57.160             24.714             84.420
 Electronic               0.000              0.000              0.000
 Translational            0.889              2.981             37.938
 Rotational               0.889              2.981             25.187
 Vibrational             55.383             18.752             21.295
 Vibration  1             0.598              1.967              4.099
 Vibration  2             0.601              1.958              3.731
 Vibration  3             0.608              1.936              3.159
 Vibration  4             0.621              1.894              2.581
 Vibration  5             0.640              1.832              2.085
 Vibration  6             0.715              1.610              1.247
 Vibration  7             0.750              1.512              1.037
 Vibration  8             0.752              1.508              1.030
 Vibration  9             0.763              1.477              0.975
 Vibration 10             0.833              1.303              0.721
 Vibration 11             0.927              1.094              0.503
                       Q            Log10(Q)             Ln(Q)
 Total Bot       0.130839D-23        -23.883263        -54.993246
 Total V=0       0.196985D+15         14.294433         32.914149
 Vib (Bot)       0.114336D-35        -35.941817        -82.759091
 Vib (Bot)  1    0.286502D+01          0.457128          1.052577
 Vib (Bot)  2    0.237056D+01          0.374851          0.863125
 Vib (Bot)  3    0.175656D+01          0.244662          0.563356
 Vib (Bot)  4    0.128545D+01          0.109056          0.251111
 Vib (Bot)  5    0.969141D+00         -0.013613         -0.031345
 Vib (Bot)  6    0.560540D+00         -0.251393         -0.578855
 Vib (Bot)  7    0.474930D+00         -0.323370         -0.744587
 Vib (Bot)  8    0.472290D+00         -0.325791         -0.750162
 Vib (Bot)  9    0.450379D+00         -0.346422         -0.797666
 Vib (Bot) 10    0.352500D+00         -0.452841         -1.042704
 Vib (Bot) 11    0.269378D+00         -0.569637         -1.311638
 Vib (V=0)       0.172139D+03          2.235880          5.148303
 Vib (V=0)  1    0.340833D+01          0.532541          1.226221
 Vib (V=0)  2    0.292271D+01          0.465786          1.072513
 Vib (V=0)  3    0.232633D+01          0.366672          0.844293
 Vib (V=0)  4    0.187927D+01          0.273989          0.630884
 Vib (V=0)  5    0.159052D+01          0.201539          0.464061
 Vib (V=0)  6    0.125114D+01          0.097304          0.224052
 Vib (V=0)  7    0.118961D+01          0.075404          0.173624
 Vib (V=0)  8    0.118779D+01          0.074740          0.172096
 Vib (V=0)  9    0.117293D+01          0.069274          0.159509
 Vib (V=0) 10    0.111176D+01          0.046013          0.105949
 Vib (V=0) 11    0.106795D+01          0.028550          0.065739
 Electronic      0.100000D+01          0.000000          0.000000
 Translational   0.160497D+08          7.205467         16.591201
 Rotational      0.712995D+05          4.853086         11.174644
 ***** Axes restored to original set *****
 -------------------------------------------------------------------
 Center     Atomic                   Forces (Hartrees/Bohr)
 Number     Number              X              Y              Z
 -------------------------------------------------------------------
    1          8          -0.000021877    0.000025725    0.000035535
    2          8          -0.000020038    0.000001771   -0.000039021
    3          8           0.000039210    0.000015433   -0.000012380
    4          1           0.000029725   -0.000022800    0.000000301
    5          1          -0.000009506   -0.000031772   -0.000017415
    6          1           0.000011653    0.000012986    0.000013064
    7          1          -0.000001932   -0.000006087    0.000013856
    8          1          -0.000006533   -0.000007154    0.000011795
    9          1          -0.000021054    0.000005423   -0.000001625
   10          1           0.000000352    0.000006475   -0.000004112
 -------------------------------------------------------------------
 Cartesian Forces:  Max     0.000039210 RMS     0.000018745

 GradGradGradGradGradGradGradGradGradGradGradGradGradGradGradGradGradGrad
 Berny optimization.
 Internal  Forces:  Max     0.000025831 RMS     0.000011943
 Search for a local minimum.
 Step number   1 out of a maximum of   2
 All quantities printed in internal units (Hartrees-Bohrs-Radians)
 Second derivative matrix not updated -- analytic derivatives used.
     Eigenvalues ---    0.00007   0.00008   0.00103   0.00204   0.00321
     Eigenvalues ---    0.00398   0.01618   0.02365   0.02776   0.03020
     Eigenvalues ---    0.03914   0.04027   0.04121   0.08829   0.09573
     Eigenvalues ---    0.10454   0.10490   0.34517   0.35063   0.51587
     Eigenvalues ---    0.52479   0.52507   0.53639   0.536541000.00000
     Eigenvalues --- 1000.000001000.000001000.00000
 Angle between quadratic step and forces=  82.53 degrees.
 Linear search not attempted -- first point.
 Iteration  1 RMS(Cart)=  0.00056542 RMS(Int)=  0.00000067
 Iteration  2 RMS(Cart)=  0.00000125 RMS(Int)=  0.00000001
 Iteration  3 RMS(Cart)=  0.00000000 RMS(Int)=  0.00000001
 Variable       Old X    -DE/DX   Delta X   Delta X   Delta X     New X
                                 (Linear)    (Quad)   (Total)
    R1        1.95572   0.00000   0.00000   0.00003   0.00003   1.95575
    R2        1.95572   0.00000   0.00000   0.00003   0.00003   1.95575
    R3        1.83590   0.00000   0.00000   0.00002   0.00002   1.83592
    R4        2.78229  -0.00001   0.00000  -0.00018  -0.00018   2.78211
    R5        1.82842   0.00001   0.00000   0.00002   0.00002   1.82844
    R6        1.82949   0.00001   0.00000   0.00003   0.00003   1.82953
    R7        2.78229  -0.00001   0.00000  -0.00019  -0.00019   2.78211
    R8        1.82949   0.00001   0.00000   0.00003   0.00003   1.82953
    R9        1.82842   0.00001   0.00000   0.00002   0.00002   1.82844
    A1        2.02836   0.00002   0.00000   0.00009   0.00009   2.02845
    A2        1.94133  -0.00001   0.00000  -0.00021  -0.00021   1.94113
    A3        1.94133  -0.00001   0.00000  -0.00021  -0.00021   1.94113
    A4        2.21504   0.00003   0.00000   0.00082   0.00082   2.21586
    A5        2.14125  -0.00002   0.00000  -0.00077  -0.00077   2.14048
    A6        1.86681  -0.00001   0.00000  -0.00007  -0.00007   1.86674
    A7        2.14125  -0.00002   0.00000  -0.00077  -0.00077   2.14048
    A8        2.21504   0.00003   0.00000   0.00082   0.00082   2.21586
    A9        1.86681  -0.00001   0.00000  -0.00007  -0.00007   1.86674
   A10        3.03189   0.00001   0.00000   0.00013   0.00013   3.03202
   A11        3.03189   0.00001   0.00000   0.00013   0.00013   3.03202
    D1        2.76999   0.00000   0.00000  -0.00392  -0.00392   2.76608
    D2       -1.26813   0.00000   0.00000  -0.00433  -0.00433  -1.27246
    D3       -2.77001   0.00000   0.00000   0.00393   0.00393  -2.76608
    D4        1.26812   0.00000   0.00000   0.00434   0.00434   1.27246
    D5        2.73500   0.00000   0.00000   0.00519   0.00519   2.74019
    D6       -0.82081   0.00000   0.00000   0.00509   0.00509  -0.81572
    D7        0.82082   0.00000   0.00000  -0.00510  -0.00510   0.81572
    D8       -2.73498   0.00000   0.00000  -0.00522  -0.00522  -2.74019
         Item               Value     Threshold  Converged?
 Maximum Force            0.000026     0.000450     YES
 RMS     Force            0.000012     0.000300     YES
 Maximum Displacement     0.001149     0.001800     YES
 RMS     Displacement     0.000566     0.001200     YES
 Predicted change in Energy=-5.469060D-08
 Optimization completed.
    -- Stationary point found.
                           ----------------------------
                           !   Optimized Parameters   !
                           ! (Angstroms and Degrees)  !
 --------------------------                            --------------------------
 ! Name  Definition              Value          Derivative Info.                !
 --------------------------------------------------------------------------------
 ! R1    R(1,4)                  1.0349         -DE/DX =    0.0                 !
 ! R2    R(1,5)                  1.0349         -DE/DX =    0.0                 !
 ! R3    R(1,10)                 0.9715         -DE/DX =    0.0                 !
 ! R4    R(2,4)                  1.4723         -DE/DX =    0.0                 !
 ! R5    R(2,6)                  0.9676         -DE/DX =    0.0                 !
 ! R6    R(2,7)                  0.9681         -DE/DX =    0.0                 !
 ! R7    R(3,5)                  1.4723         -DE/DX =    0.0                 !
 ! R8    R(3,8)                  0.9681         -DE/DX =    0.0                 !
 ! R9    R(3,9)                  0.9676         -DE/DX =    0.0                 !
 ! A1    A(4,1,5)              116.2164         -DE/DX =    0.0                 !
 ! A2    A(4,1,10)             111.2303         -DE/DX =    0.0                 !
 ! A3    A(5,1,10)             111.2303         -DE/DX =    0.0                 !
 ! A4    A(4,2,6)              126.9123         -DE/DX =    0.0                 !
 ! A5    A(4,2,7)              122.6845         -DE/DX =    0.0                 !
 ! A6    A(6,2,7)              106.9605         -DE/DX =    0.0                 !
 ! A7    A(5,3,8)              122.6846         -DE/DX =    0.0                 !
 ! A8    A(5,3,9)              126.9124         -DE/DX =    0.0                 !
 ! A9    A(8,3,9)              106.9605         -DE/DX =    0.0                 !
 ! A10   A(1,4,2)              173.7146         -DE/DX =    0.0                 !
 ! A11   A(1,5,3)              173.7147         -DE/DX =    0.0                 !
 ! D1    D(5,1,4,2)            158.709          -DE/DX =    0.0                 !
 ! D2    D(10,1,4,2)           -72.6586         -DE/DX =    0.0                 !
 ! D3    D(4,1,5,3)           -158.7097         -DE/DX =    0.0                 !
 ! D4    D(10,1,5,3)            72.6579         -DE/DX =    0.0                 !
 ! D5    D(6,2,4,1)            156.7042         -DE/DX =    0.0                 !
 ! D6    D(7,2,4,1)            -47.0291         -DE/DX =    0.0                 !
 ! D7    D(8,3,5,1)             47.0297         -DE/DX =    0.0                 !
 ! D8    D(9,3,5,1)           -156.7026         -DE/DX =    0.0                 !
 --------------------------------------------------------------------------------
 GradGradGradGradGradGradGradGradGradGradGradGradGradGradGradGradGradGrad

 1\1\GINC-POLARIS\Freq\RMP2-FC\Aug-CC-pVDZ\H7O3(1+)\G060005\20-Apr-2007
 \0\\#N Geom=AllCheck Guess=Read SCRF=Check GenChk RMP2(FC)/Aug-CC-pVDZ
  Freq\\Title Card Required\\1,1\O,0.2299206284,-0.7266131717,-0.137422
 4652\O,1.8272677371,0.8374410933,0.989601663\O,-2.1006608269,-0.071524
 1141,-0.7755620284\H,0.8552841585,-0.029387034,0.3028723464\H,-0.71313
 02372,-0.3923370997,-0.401953222\H,2.0519695274,1.7511369692,0.7641229
 156\H,2.0887039266,0.7016656483,1.9118179865\H,-2.8658282082,-0.444864
 5804,-0.3146905904\H,-2.4093127184,0.7187415972,-1.2407348481\H,0.6675
 120127,-1.1708343082,-0.8824227574\\Version=AM64L-G03RevD.01\State=1-A
 \HF=-228.4806365\MP2=-229.1438423\RMSD=8.751e-10\RMSF=1.874e-05\ZeroPo
 int=0.0830009\Thermal=0.0910903\Dipole=-0.0618979,0.4560302,-0.0970979
 \DipoleDeriv=-1.1234798,-0.0990014,-0.3228625,-0.0867324,-0.6120542,-0
 .1568714,-0.3291803,-0.1295679,-0.492252,-0.7492716,-0.1479353,-0.1289
 082,-0.1708979,-0.6281491,-0.1224733,-0.1341469,-0.1098729,-0.5913779,
 -0.894573,0.0513022,-0.128205,0.0767663,-0.5169514,0.0040962,-0.124254
 3,-0.0029392,-0.5572744,0.7812997,0.4887188,0.4247773,0.5656394,0.7130
 703,0.4054406,0.4400496,0.3549389,0.5941551,1.4743805,-0.2372036,0.279
 3566,-0.3280611,0.3011554,-0.1019067,0.2712606,-0.0824182,0.3129852,0.
 3348909,-0.0224712,-0.0502625,-0.0043213,0.3408606,-0.0309861,-0.06590
 62,-0.0508322,0.29048,0.3377686,-0.0512665,-0.0127898,-0.0632606,0.282
 ,-0.0448286,0.0056466,-0.0275829,0.3577775,0.2932668,0.0559449,-0.0188
 766,0.073372,0.3408117,0.0197925,-0.0401108,0.0146365,0.3434672,0.2361
 8,0.0133846,0.006742,-0.0105419,0.3530047,-0.0103242,0.0253606,-0.0033
 33,0.3770464,0.3095377,-0.0514725,-0.0489713,-0.0519624,0.4262519,0.03
 8061,-0.0487189,0.0369709,0.364993\Polar=29.0800268,1.0353041,24.13311
 61,2.9095952,1.0402808,23.6169103\PG=C01 [X(H7O3)]\NImag=0\\0.58685172
 ,-0.07336802,0.35550253,-0.00900900,0.27156633,0.44602924,-0.01656867,
 -0.02145989,-0.01853862,0.11332995,-0.02630187,-0.01457496,-0.02158939
 ,0.14051463,0.54767709,-0.01915298,-0.01974702,-0.00681659,0.14534329,
 -0.16402508,0.56202035,-0.04864907,0.01328627,-0.01296482,-0.00224434,
 -0.00274070,-0.00186708,0.50055558,0.01799123,0.00543359,0.00294141,0.
 00058905,0.00149152,0.00065813,-0.00034510,0.46174076,-0.01227999,0.00
 079422,0.00525551,-0.00079670,-0.00059053,-0.00014546,-0.10287463,-0.3
 2503861,0.26073069,-0.14094295,-0.08141285,-0.05071463,-0.00644206,0.0
 0503451,0.00028792,0.00321611,0.00001592,0.00047802,0.13092012,-0.0746
 1999,-0.15249505,-0.08415255,0.00585385,-0.00786476,0.01562294,0.00820
 258,-0.00416121,0.00145546,0.06694418,0.14398204,-0.02718377,-0.063093
 37,-0.06255411,0.00336362,0.01766113,-0.01615549,0.00437881,-0.0019754
 4,0.00084758,0.03917629,0.05893414,0.08749003,-0.20837676,0.07122923,-
 0.04643140,0.00472086,0.00589760,0.00431931,0.00110037,-0.01230189,0.0
 0646519,-0.01315186,-0.01187915,-0.01170010,0.20407403,0.07779903,-0.0
 7828953,-0.00765371,-0.00275767,-0.00541705,-0.00273754,-0.01190800,-0
 .01639062,0.00828599,-0.01333525,0.02211500,0.00535658,-0.05757306,0.0
 8243525,-0.07684344,0.00102267,-0.06932755,0.00065982,-0.00034939,0.00
 059865,0.00276481,0.00894735,-0.01517189,-0.00489933,0.00758468,-0.004
 66217,0.04270088,-0.00381390,0.07588453,-0.00278450,-0.00235241,-0.003
 42425,-0.03987698,-0.12506708,0.01329333,-0.00014328,0.00045106,0.0000
 6668,0.00368406,0.00065213,0.00739550,0.00056817,-0.00108637,-0.000130
 02,0.03663405,0.00053404,0.00147320,0.00077359,-0.11113062,-0.46292572
 ,0.12997557,0.00032716,-0.00014524,0.00012388,-0.00020291,-0.00377475,
 -0.00129785,-0.00080006,-0.00004410,-0.00025401,0.11515503,0.47053177,
 -0.00543117,-0.00291308,-0.00408223,-0.00307994,0.08005943,-0.07221633
 ,-0.00045550,0.00031173,-0.00030140,0.00917306,0.00265287,0.00777365,0
 .00094228,-0.00111827,0.00011046,-0.01188134,-0.12111301,0.07639342,-0
 .00239146,-0.00333494,-0.00130241,-0.04887121,0.00572088,-0.14107234,-
 0.00009663,0.00011942,0.00019877,0.00256580,0.00681607,-0.00243143,0.0
 0047453,-0.00023898,-0.00020916,0.00263241,-0.00373492,0.01140210,0.04
 591094,-0.00468026,-0.00479521,-0.00200097,-0.01086648,-0.05737974,0.0
 3965361,-0.00028971,0.00001895,-0.00006702,0.00780595,0.00922688,-0.00
 094962,0.00047030,-0.00055837,0.00010519,0.01271815,-0.00508206,0.0425
 5609,-0.00484065,0.05806653,0.00117953,0.00170758,0.00112130,-0.127705
 46,0.08874578,-0.46774519,0.00042650,-0.00001529,0.00003212,-0.0016279
 0,-0.00280237,-0.00359182,-0.00090474,-0.00003374,-0.00006439,-0.00478
 846,-0.00821996,-0.00819506,0.13354798,-0.07927736,0.47845511,-0.00279
 961,0.00134297,-0.00158400,0.00019153,0.00001015,0.00003338,-0.3460282
 9,-0.15463392,0.19247459,-0.00034544,0.00024712,-0.00011059,0.00079842
 ,-0.00450398,0.00617503,-0.00008354,-0.00003182,-0.00000066,-0.0000799
 9,0.00000482,-0.00003499,0.33865627,0.00449919,-0.00156659,0.00210144,
 0.00028696,0.00011168,0.00012389,-0.11045370,-0.10161917,0.10298864,-0
 .00021821,-0.00056130,-0.00009613,-0.00663486,0.00336013,-0.00526372,-
 0.00007604,-0.00000520,0.00003717,-0.00004886,0.00008189,-0.00005714,0
 .14459644,0.11155141,-0.00499849,0.00242256,-0.00169915,-0.00012622,-0
 .00022227,-0.00034878,0.16489811,0.11529736,-0.12634877,0.00045937,0.0
 0058566,0.00075852,0.00595918,-0.00594994,0.00404230,-0.00001878,-0.00
 000467,0.00003263,-0.00013302,-0.00005570,0.00009316,-0.18589702,-0.11
 648799,0.13222496,-0.00759220,-0.00005592,-0.00114487,-0.00010456,-0.0
 0052850,-0.00004695,-0.10580799,0.14755308,-0.08167708,-0.00017929,0.0
 0158532,0.00033309,0.01225549,0.00394946,-0.00006544,-0.00023525,0.000
 02245,-0.00020208,-0.00003661,-0.00000236,-0.00005470,0.00986767,-0.03
 191784,0.01992202,0.09230805,-0.00432043,0.00113868,-0.00038052,-0.000
 22348,-0.00050141,-0.00015389,0.10507905,-0.34626863,0.21202084,0.0005
 9479,0.00093696,0.00055771,0.00706319,-0.00178924,-0.00065042,-0.00016
 800,0.00012838,-0.00012354,-0.00000541,0.00001545,-0.00000599,0.012908
 96,-0.01194705,0.00422561,-0.12079438,0.35834184,0.00157175,0.00023943
 ,0.00106000,0.00038196,0.00006131,0.00001606,-0.05060794,0.19843413,-0
 .12294247,-0.00037657,-0.00014511,-0.00012315,-0.00300611,0.00042492,-
 0.00278328,-0.00016491,-0.00002936,0.00011314,-0.00009402,0.00004380,-
 0.00003495,-0.01088014,0.01658809,-0.00856532,0.06350478,-0.21549464,0
 .13290938,-0.15674650,0.09612555,0.14511401,-0.00413453,-0.00253961,-0
 .00113787,-0.00190247,0.00056115,-0.00205485,0.02067550,-0.00380210,-0
 .01322141,-0.00246325,0.00965481,0.02984686,-0.00039515,-0.00013835,-0
 .00046677,-0.00010779,-0.00031976,-0.00003776,-0.00017703,-0.00003308,
 -0.00006516,-0.00047532,-0.00013429,-0.00032880,0.14572654,0.08246708,
 -0.11182667,-0.16160563,-0.00080636,-0.00061664,0.00062939,-0.00115785
 ,-0.00009996,0.00002713,0.01477387,-0.00740380,-0.01509715,0.00452871,
 -0.00542147,-0.00732845,-0.00022647,-0.00015629,-0.00034940,-0.0004526
 1,0.00040568,-0.00004151,0.00005927,0.00059419,0.00018938,0.00018869,-
 0.00005499,-0.00012257,-0.09937433,0.12457996,0.15214757,-0.19199932,-
 0.30898640,0.00049824,0.00024900,0.00079279,-0.00369826,0.00043922,-0.
 00195591,0.00804378,0.00026429,-0.00978303,0.00165551,0.00723961,0.011
 37332,-0.00034774,0.00004582,0.00037173,0.00009353,-0.00000801,-0.0000
 7028,-0.00017560,0.00006574,-0.00018955,-0.00056878,0.00000484,0.00035
 059,-0.15764824,0.18369881,0.30809675\\0.00002188,-0.00002572,-0.00003
 553,0.00002004,-0.00000177,0.00003902,-0.00003921,-0.00001543,0.000012
 38,-0.00002973,0.00002280,-0.00000030,0.00000951,0.00003177,0.00001741
 ,-0.00001165,-0.00001299,-0.00001306,0.00000193,0.00000609,-0.00001386
 ,0.00000653,0.00000715,-0.00001180,0.00002105,-0.00000542,0.00000162,-
 0.00000035,-0.00000648,0.00000411\\\@


 Boundary, n.  In political geography, an imaginary
 line between two nations, separating the imaginary
 rights of one from the imaginary rights of another.
                               -- Ambrose Bierce
 Job cpu time:  0 days  0 hours 40 minutes 32.1 seconds.
 File lengths (MBytes):  RWF=   1439 Int=      0 D2E=      0 Chk=      7 Scr=      1
 Normal termination of Gaussian 03 at Fri Apr 20 15:57:39 2007.
