 Entering Gaussian System, Link 0=g03
 Initial command:
 /usr/local/g03-em64t/g03/l1.exe /usr/scratch/NQC-pW4-DFT.std.lm.3.com/Gau-16982.inp -scrdir=/usr/scratch/NQC-pW4-DFT.std.lm.3.com/
 Entering Link 1 = /usr/local/g03-em64t/g03/l1.exe PID=     16983.
  
 Copyright (c) 1988,1990,1992,1993,1995,1998,2003,2004, Gaussian, Inc.
                  All Rights Reserved.
  
 This is the Gaussian(R) 03 program.  It is based on the
 the Gaussian(R) 98 system (copyright 1998, Gaussian, Inc.),
 the Gaussian(R) 94 system (copyright 1995, Gaussian, Inc.),
 the Gaussian 92(TM) system (copyright 1992, Gaussian, Inc.),
 the Gaussian 90(TM) system (copyright 1990, Gaussian, Inc.),
 the Gaussian 88(TM) system (copyright 1988, Gaussian, Inc.),
 the Gaussian 86(TM) system (copyright 1986, Carnegie Mellon
 University), and the Gaussian 82(TM) system (copyright 1983,
 Carnegie Mellon University). Gaussian is a federally registered
 trademark of Gaussian, Inc.
  
 This software contains proprietary and confidential information,
 including trade secrets, belonging to Gaussian, Inc.
  
 This software is provided under written license and may be
 used, copied, transmitted, or stored only in accord with that
 written license.
  
 The following legend is applicable only to US Government
 contracts under FAR:
  
                    RESTRICTED RIGHTS LEGEND
  
 Use, reproduction and disclosure by the US Government is
 subject to restrictions as set forth in subparagraphs (a)
 and (c) of the Commercial Computer Software - Restricted
 Rights clause in FAR 52.227-19.
  
 Gaussian, Inc.
 340 Quinnipiac St., Bldg. 40, Wallingford CT 06492
  
  
 ---------------------------------------------------------------
 Warning -- This program may not be used in any manner that
 competes with the business of Gaussian, Inc. or will provide
 assistance to any competitor of Gaussian, Inc.  The licensee
 of this program is prohibited from giving any competitor of
 Gaussian, Inc. access to this program.  By using this program,
 the user acknowledges that Gaussian, Inc. is engaged in the
 business of creating and licensing software in the field of
 computational chemistry and represents and warrants to the
 licensee that it is not a competitor of Gaussian, Inc. and that
 it will not use this program in any manner prohibited above.
 ---------------------------------------------------------------
  

 Cite this work as:
 Gaussian 03, Revision D.01,
 M. J. Frisch, G. W. Trucks, H. B. Schlegel, G. E. Scuseria, 
 M. A. Robb, J. R. Cheeseman, J. A. Montgomery, Jr., T. Vreven, 
 K. N. Kudin, J. C. Burant, J. M. Millam, S. S. Iyengar, J. Tomasi, 
 V. Barone, B. Mennucci, M. Cossi, G. Scalmani, N. Rega, 
 G. A. Petersson, H. Nakatsuji, M. Hada, M. Ehara, K. Toyota, 
 R. Fukuda, J. Hasegawa, M. Ishida, T. Nakajima, Y. Honda, O. Kitao, 
 H. Nakai, M. Klene, X. Li, J. E. Knox, H. P. Hratchian, J. B. Cross, 
 V. Bakken, C. Adamo, J. Jaramillo, R. Gomperts, R. E. Stratmann, 
 O. Yazyev, A. J. Austin, R. Cammi, C. Pomelli, J. W. Ochterski, 
 P. Y. Ayala, K. Morokuma, G. A. Voth, P. Salvador, J. J. Dannenberg, 
 V. G. Zakrzewski, S. Dapprich, A. D. Daniels, M. C. Strain, 
 O. Farkas, D. K. Malick, A. D. Rabuck, K. Raghavachari, 
 J. B. Foresman, J. V. Ortiz, Q. Cui, A. G. Baboul, S. Clifford, 
 J. Cioslowski, B. B. Stefanov, G. Liu, A. Liashenko, P. Piskorz, 
 I. Komaromi, R. L. Martin, D. J. Fox, T. Keith, M. A. Al-Laham, 
 C. Y. Peng, A. Nanayakkara, M. Challacombe, P. M. W. Gill, 
 B. Johnson, W. Chen, M. W. Wong, C. Gonzalez, and J. A. Pople, 
 Gaussian, Inc., Wallingford CT, 2004.
 
 ******************************************
 Gaussian 03:  AM64L-G03RevD.01 13-Oct-2005
                14-Aug-2007 
 ******************************************
 %chk=pW4-DFT.std.lm.3.chk
 %mem=128MW
 %nproc=2
 Will use up to    2 processors via shared memory.
 --------------------------
 # freq opt mp2/aug-cc-pvDZ
 --------------------------
 1/18=20,38=1/1,3;
 2/9=110,17=6,18=5,40=1/2;
 3/5=16,7=10,11=9,16=1,25=1,30=1/1,2,3;
 4//1;
 5/5=2,38=5/2;
 8/6=4,10=1/1;
 9/15=2,16=-3/6;
 10/5=1/2;
 6/7=2,8=2,9=2,10=2/1;
 7/12=2/1,2,3,16;
 1/18=20/3(3);
 2/9=110/2;
 6/7=2,8=2,9=2,10=2/1;
 99//99;
 2/9=110/2;
 3/5=16,7=10,11=9,16=1,25=1,30=1/1,2,3;
 4/5=5,16=3/1;
 5/5=2,38=5/2;
 8/6=4,10=1/1;
 9/15=2,16=-3/6;
 10/5=1/2;
 7/12=2/1,2,3,16;
 1/18=20/3(-8);
 2/9=110/2;
 6/7=2,8=2,9=2,10=2/1;
 99//99;
 -------------------
 Title Card Required
 -------------------
 Symbolic Z-matrix:
 Charge =  1 Multiplicity = 1
 O                     2.52944   1.00733   0.48282 
 O                     1.17646  -0.89395  -0.71473 
 O                    -1.17945  -1.12071  -0.25092 
 O                    -2.52645   1.00733   0.48282 
 H                     2.68148   1.91158   0.16311 
 H                     1.70238  -0.13739  -0.29921 
 H                     1.38434  -0.96119  -1.66292 
 H                    -0.00137  -0.96165  -0.46143 
 H                    -1.70889  -0.32427   0.07615 
 H                    -1.38536  -1.90196   0.29131 
 H                    -2.68055   1.31647   1.39041 
 H                    -3.29245   1.28987  -0.04373 
 H                     3.29838   0.76835   1.02639 
 

 GradGradGradGradGradGradGradGradGradGradGradGradGradGradGradGradGradGrad
 Berny optimization.
 Initialization pass.
                           ----------------------------
                           !    Initial Parameters    !
                           ! (Angstroms and Degrees)  !
 --------------------------                            --------------------------
 ! Name  Definition              Value          Derivative Info.                !
 --------------------------------------------------------------------------------
 ! R1    R(1,5)                  0.9711         estimate D2E/DX2                !
 ! R2    R(1,6)                  1.6143         estimate D2E/DX2                !
 ! R3    R(1,13)                 0.9715         estimate D2E/DX2                !
 ! R4    R(2,6)                  1.0108         estimate D2E/DX2                !
 ! R5    R(2,7)                  0.973          estimate D2E/DX2                !
 ! R6    R(2,8)                  1.2067         estimate D2E/DX2                !
 ! R7    R(3,8)                  1.2073         estimate D2E/DX2                !
 ! R8    R(3,9)                  1.0107         estimate D2E/DX2                !
 ! R9    R(3,10)                 0.973          estimate D2E/DX2                !
 ! R10   R(4,9)                  1.6146         estimate D2E/DX2                !
 ! R11   R(4,11)                 0.9711         estimate D2E/DX2                !
 ! R12   R(4,12)                 0.9715         estimate D2E/DX2                !
 ! A1    A(5,1,6)              125.5227         estimate D2E/DX2                !
 ! A2    A(5,1,13)             106.8189         estimate D2E/DX2                !
 ! A3    A(6,1,13)             120.1399         estimate D2E/DX2                !
 ! A4    A(6,2,7)              109.9478         estimate D2E/DX2                !
 ! A5    A(6,2,8)              117.6196         estimate D2E/DX2                !
 ! A6    A(7,2,8)              114.156          estimate D2E/DX2                !
 ! A7    A(8,3,9)              117.6299         estimate D2E/DX2                !
 ! A8    A(8,3,10)             114.1707         estimate D2E/DX2                !
 ! A9    A(9,3,10)             109.9691         estimate D2E/DX2                !
 ! A10   A(9,4,11)             125.3309         estimate D2E/DX2                !
 ! A11   A(9,4,12)             120.1705         estimate D2E/DX2                !
 ! A12   A(11,4,12)            106.7886         estimate D2E/DX2                !
 ! A13   A(1,6,2)              175.2067         estimate D2E/DX2                !
 ! A14   A(2,8,3)              175.2103         estimate D2E/DX2                !
 ! A15   A(3,9,4)              175.2748         estimate D2E/DX2                !
 ! D1    D(5,1,6,2)           -160.5126         estimate D2E/DX2                !
 ! D2    D(13,1,6,2)            53.8395         estimate D2E/DX2                !
 ! D3    D(7,2,6,1)           -155.8035         estimate D2E/DX2                !
 ! D4    D(8,2,6,1)             71.2567         estimate D2E/DX2                !
 ! D5    D(6,2,8,3)           -169.3041         estimate D2E/DX2                !
 ! D6    D(7,2,8,3)             59.6505         estimate D2E/DX2                !
 ! D7    D(9,3,8,2)           -170.0681         estimate D2E/DX2                !
 ! D8    D(10,3,8,2)            58.8268         estimate D2E/DX2                !
 ! D9    D(8,3,9,4)             63.2879         estimate D2E/DX2                !
 ! D10   D(10,3,9,4)          -163.7177         estimate D2E/DX2                !
 ! D11   D(11,4,9,3)          -153.3442         estimate D2E/DX2                !
 ! D12   D(12,4,9,3)            61.4109         estimate D2E/DX2                !
 --------------------------------------------------------------------------------
 Trust Radius=3.00D-01 FncErr=1.00D-07 GrdErr=1.00D-07
 Number of steps in this run=  49 maximum allowed number of steps= 100.
 GradGradGradGradGradGradGradGradGradGradGradGradGradGradGradGradGradGrad

                          Input orientation:                          
 ---------------------------------------------------------------------
 Center     Atomic     Atomic              Coordinates (Angstroms)
 Number     Number      Type              X           Y           Z
 ---------------------------------------------------------------------
    1          8             0        2.529441    1.007328    0.482824
    2          8             0        1.176455   -0.893945   -0.714733
    3          8             0       -1.179452   -1.120710   -0.250915
    4          8             0       -2.526445    1.007328    0.482824
    5          1             0        2.681481    1.911579    0.163109
    6          1             0        1.702382   -0.137389   -0.299210
    7          1             0        1.384341   -0.961191   -1.662922
    8          1             0       -0.001370   -0.961654   -0.461432
    9          1             0       -1.708885   -0.324273    0.076145
   10          1             0       -1.385359   -1.901964    0.291310
   11          1             0       -2.680549    1.316466    1.390411
   12          1             0       -3.292447    1.289872   -0.043730
   13          1             0        3.298378    0.768345    1.026388
 ---------------------------------------------------------------------
                    Distance matrix (angstroms):
                    1          2          3          4          5
     1  O    0.000000
     2  O    2.622890   0.000000
     3  O    4.338526   2.411814   0.000000
     4  O    5.055886   4.331334   2.623225   0.000000
     5  H    0.971084   3.302526   4.926763   5.295506   0.000000
     6  H    1.614305   1.010760   3.045360   4.450273   2.317465
     7  H    3.128985   0.973037   2.931253   4.875812   3.642769
     8  H    3.342681   1.206656   1.207267   3.338340   3.980353
     9  H    4.461161   3.045521   1.010732   1.614606   4.927668
    10  H    4.881221   2.931061   0.973018   3.130932   5.576624
    11  H    5.297478   4.918743   3.299556   0.971097   5.532793
    12  H    5.852476   5.019003   3.212255   0.971519   6.009752
    13  H    0.971514   3.208936   5.025037   5.855010   1.559742
                    6          7          8          9         10
     6  H    0.000000
     7  H    1.624657   0.000000
     8  H    1.899605   1.834059   0.000000
     9  H    3.436940   3.605283   1.900224   0.000000
    10  H    3.605077   3.517857   1.834729   1.624830   0.000000
    11  H    4.917174   5.570807   3.974563   2.315912   3.639208
    12  H    5.201025   5.437041   4.009368   2.264399   3.733236
    13  H    2.263795   3.726556   4.011838   5.212433   5.441349
                   11         12         13
    11  H    0.000000
    12  H    1.559451   0.000000
    13  H    6.015024   6.697471   0.000000
 Stoichiometry    H9O4(1+)
 Framework group  C1[X(H9O4)]
 Deg. of freedom    33
 Full point group                 C1
 Largest Abelian subgroup         C1      NOp   1
 Largest concise Abelian subgroup C1      NOp   1
                         Standard orientation:                         
 ---------------------------------------------------------------------
 Center     Atomic     Atomic              Coordinates (Angstroms)
 Number     Number      Type              X           Y           Z
 ---------------------------------------------------------------------
    1          8             0        2.527360    1.087529    0.127203
    2          8             0        1.186871   -1.143217   -0.199008
    3          8             0       -1.191986   -1.145005    0.198334
    4          8             0       -2.522148    1.092490   -0.126618
    5          1             0        2.713962    1.764725   -0.543311
    6          1             0        1.710577   -0.281905   -0.124780
    7          1             0        1.435504   -1.613756   -1.013610
    8          1             0       -0.002358   -1.093678   -0.000770
    9          1             0       -1.717441   -0.284915    0.122692
   10          1             0       -1.439591   -1.615083    1.013492
   11          1             0       -2.709786    1.763581    0.549739
   12          1             0       -3.257189    1.120538   -0.761266
   13          1             0        3.265552    1.106113    0.758524
 ---------------------------------------------------------------------
 Rotational constants (GHZ):      5.0085080      1.6780586      1.2932093
 Standard basis: Aug-CC-pVDZ (5D, 7F)
 There are   173 symmetry adapted basis functions of A   symmetry.
 Integral buffers will be    131072 words long.
 Raffenetti 1 integral format.
 Two-electron integral symmetry is turned on.
   173 basis functions,   271 primitive gaussians,   181 cartesian basis functions
    20 alpha electrons       20 beta electrons
       nuclear repulsion energy       141.4018876560 Hartrees.
 NAtoms=   13 NActive=   13 NUniq=   13 SFac= 7.50D-01 NAtFMM=   80 NAOKFM=F Big=F
 One-electron integrals computed using PRISM.
 NBasis=   173 RedAO= T  NBF=   173
 NBsUse=   173 1.00D-06 NBFU=   173
 Harris functional with IExCor=  205 diagonalized for initial guess.
 ExpMin= 2.97D-02 ExpMax= 1.17D+04 ExpMxC= 4.01D+02 IAcc=3 IRadAn=         5 AccDes= 0.00D+00
 HarFok:  IExCor= 205 AccDes= 0.00D+00 IRadAn=         5 IDoV=1
 ScaDFX=  1.000000  1.000000  1.000000  1.000000
 Initial guess orbital symmetries:
       Occupied  (A) (A) (A) (A) (A) (A) (A) (A) (A) (A) (A) (A)
                 (A) (A) (A) (A) (A) (A) (A) (A)
       Virtual   (A) (A) (A) (A) (A) (A) (A) (A) (A) (A) (A) (A)
                 (A) (A) (A) (A) (A) (A) (A) (A) (A) (A) (A) (A)
                 (A) (A) (A) (A) (A) (A) (A) (A) (A) (A) (A) (A)
                 (A) (A) (A) (A) (A) (A) (A) (A) (A) (A) (A) (A)
                 (A) (A) (A) (A) (A) (A) (A) (A) (A) (A) (A) (A)
                 (A) (A) (A) (A) (A) (A) (A) (A) (A) (A) (A) (A)
                 (A) (A) (A) (A) (A) (A) (A) (A) (A) (A) (A) (A)
                 (A) (A) (A) (A) (A) (A) (A) (A) (A) (A) (A) (A)
                 (A) (A) (A) (A) (A) (A) (A) (A) (A) (A) (A) (A)
                 (A) (A) (A) (A) (A) (A) (A) (A) (A) (A) (A) (A)
                 (A) (A) (A) (A) (A) (A) (A) (A) (A) (A) (A) (A)
                 (A) (A) (A) (A) (A) (A) (A) (A) (A) (A) (A) (A)
                 (A) (A) (A) (A) (A) (A) (A) (A) (A)
 The electronic state of the initial guess is 1-A.
 Requested convergence on RMS density matrix=1.00D-08 within 128 cycles.
 Requested convergence on MAX density matrix=1.00D-06.
 Requested convergence on             energy=1.00D-06.
 No special actions if energy rises.
 SCF Done:  E(RHF) =  -304.538083245     A.U. after   10 cycles
             Convg  =    0.7664D-08             -V/T =  2.0020
             S**2   =   0.0000
 ExpMin= 2.97D-02 ExpMax= 1.17D+04 ExpMxC= 4.01D+02 IAcc=3 IRadAn=         5 AccDes= 0.00D+00
 HarFok:  IExCor= 205 AccDes= 0.00D+00 IRadAn=         5 IDoV=1
 ScaDFX=  1.000000  1.000000  1.000000  1.000000
 Range of M.O.s used for correlation:     5   173
 NBasis=   173 NAE=    20 NBE=    20 NFC=     4 NFV=     0
 NROrb=    169 NOA=    16 NOB=    16 NVA=   153 NVB=   153
 Fully direct method using O(ONN) memory.
 JobTyp=1 Pass  1:  I=   5 to  20 NPSUse=  2 ParTrn=T ParDer=T DoDerP=T.
 Spin components of T(2) and E(2):
     alpha-alpha T2 =       0.3098759509D-01 E2=     -0.1148262199D+00
     alpha-beta  T2 =       0.1724233087D+00 E2=     -0.6624326566D+00
     beta-beta   T2 =       0.3098759509D-01 E2=     -0.1148262199D+00
 ANorm=    0.1111034877D+01
 E2 =    -0.8920850964D+00 EUMP2 =    -0.30543016834170D+03
 DoAtom=TTTTTTTTTTTTT
          Differentiating once with respect to electric field.
                with respect to dipole field.
          Differentiating once with respect to nuclear coordinates.
          There are   1 degrees of freedom in the 1st order CPHF.
 Petite list used in FoFDir.
 MinBra= 0 MaxBra= 2 Meth= 1.
 IRaf=       0 NMat=   1 IRICut=       1 DoRegI=T DoRafI=F ISym2E= 1 JSym2E=1.
     1 vectors were produced by pass  0.
 AX will form   1 AO Fock derivatives at one time.
     1 vectors were produced by pass  1.
     1 vectors were produced by pass  2.
     1 vectors were produced by pass  3.
     1 vectors were produced by pass  4.
     1 vectors were produced by pass  5.
     1 vectors were produced by pass  6.
     1 vectors were produced by pass  7.
     1 vectors were produced by pass  8.
     1 vectors were produced by pass  9.
     1 vectors were produced by pass 10.
 Inv2:  IOpt= 1 Iter= 1 AM= 2.89D-16 Conv= 1.00D-12.
 Inverted reduced A of dimension   11 with in-core refinement.
 End of Minotr Frequency-dependent properties file   721 does not exist.

 **********************************************************************

            Population analysis using the SCF density.

 **********************************************************************

 Orbital symmetries:
       Occupied  (A) (A) (A) (A) (A) (A) (A) (A) (A) (A) (A) (A)
                 (A) (A) (A) (A) (A) (A) (A) (A)
       Virtual   (A) (A) (A) (A) (A) (A) (A) (A) (A) (A) (A) (A)
                 (A) (A) (A) (A) (A) (A) (A) (A) (A) (A) (A) (A)
                 (A) (A) (A) (A) (A) (A) (A) (A) (A) (A) (A) (A)
                 (A) (A) (A) (A) (A) (A) (A) (A) (A) (A) (A) (A)
                 (A) (A) (A) (A) (A) (A) (A) (A) (A) (A) (A) (A)
                 (A) (A) (A) (A) (A) (A) (A) (A) (A) (A) (A) (A)
                 (A) (A) (A) (A) (A) (A) (A) (A) (A) (A) (A) (A)
                 (A) (A) (A) (A) (A) (A) (A) (A) (A) (A) (A) (A)
                 (A) (A) (A) (A) (A) (A) (A) (A) (A) (A) (A) (A)
                 (A) (A) (A) (A) (A) (A) (A) (A) (A) (A) (A) (A)
                 (A) (A) (A) (A) (A) (A) (A) (A) (A) (A) (A) (A)
                 (A) (A) (A) (A) (A) (A) (A) (A) (A) (A) (A) (A)
                 (A) (A) (A) (A) (A) (A) (A) (A) (A)
 The electronic state is 1-A.
 Alpha  occ. eigenvalues --  -20.79041 -20.79023 -20.75496 -20.75489  -1.59415
 Alpha  occ. eigenvalues --   -1.56177  -1.52939  -1.52751  -0.96607  -0.94141
 Alpha  occ. eigenvalues --   -0.93978  -0.89355  -0.89349  -0.81192  -0.77004
 Alpha  occ. eigenvalues --   -0.74775  -0.74040  -0.72160  -0.69058  -0.68714
 Alpha virt. eigenvalues --   -0.09211  -0.07257  -0.06339  -0.05727  -0.03971
 Alpha virt. eigenvalues --   -0.03853  -0.02123  -0.01642  -0.01552   0.05107
 Alpha virt. eigenvalues --    0.05180   0.05742   0.06748   0.07956   0.08482
 Alpha virt. eigenvalues --    0.08609   0.09669   0.09762   0.10300   0.12432
 Alpha virt. eigenvalues --    0.13018   0.13512   0.14512   0.14593   0.16078
 Alpha virt. eigenvalues --    0.16563   0.16849   0.19969   0.20130   0.21534
 Alpha virt. eigenvalues --    0.21737   0.23829   0.25093   0.27355   0.28934
 Alpha virt. eigenvalues --    0.29553   0.33237   0.33528   0.34742   0.37042
 Alpha virt. eigenvalues --    0.37527   0.37620   0.40505   0.40660   0.41922
 Alpha virt. eigenvalues --    0.43037   0.43906   0.44116   0.44627   0.46697
 Alpha virt. eigenvalues --    0.47136   0.48850   0.50148   0.51363   0.52740
 Alpha virt. eigenvalues --    0.53136   0.53392   0.54447   0.63370   0.68180
 Alpha virt. eigenvalues --    0.69897   0.70068   0.71853   0.73804   0.77628
 Alpha virt. eigenvalues --    0.78536   0.79632   0.80293   0.84831   0.85223
 Alpha virt. eigenvalues --    0.97915   0.98803   0.98991   1.03146   1.03862
 Alpha virt. eigenvalues --    1.07238   1.10066   1.10316   1.12978   1.14091
 Alpha virt. eigenvalues --    1.21160   1.23392   1.25259   1.26157   1.27219
 Alpha virt. eigenvalues --    1.31861   1.32291   1.38040   1.38480   1.41142
 Alpha virt. eigenvalues --    1.46082   1.48638   1.52640   1.56708   1.74278
 Alpha virt. eigenvalues --    1.77068   1.77625   1.79958   1.84706   1.84776
 Alpha virt. eigenvalues --    1.87753   1.89844   1.90120   1.91215   1.97934
 Alpha virt. eigenvalues --    1.97996   2.07426   2.07492   2.13835   2.20654
 Alpha virt. eigenvalues --    2.29702   2.30597   2.32154   2.32732   2.34394
 Alpha virt. eigenvalues --    2.38415   2.41284   2.44931   2.45071   2.47144
 Alpha virt. eigenvalues --    2.57945   2.63120   2.64098   2.65825   2.70921
 Alpha virt. eigenvalues --    2.72672   2.74686   2.81265   2.83551   2.90718
 Alpha virt. eigenvalues --    2.93174   2.98136   2.99015   3.50580   3.52851
 Alpha virt. eigenvalues --    3.53178   3.53539   3.55553   3.56116   3.58951
 Alpha virt. eigenvalues --    3.60143   3.61237   3.62714   3.63302   3.90803
 Alpha virt. eigenvalues --    3.90881   3.96337   3.97917   4.13812   4.14739
 Alpha virt. eigenvalues --    4.20829   4.25179   4.40051
          Condensed to atoms (all electrons):
              1          2          3          4          5          6
     1  O    7.878277  -0.038456   0.002969  -0.000831   0.358123  -0.055875
     2  O   -0.038456   7.951013  -0.066522   0.002981  -0.002012   0.287691
     3  O    0.002969  -0.066522   7.952841  -0.038724   0.000207  -0.016576
     4  O   -0.000831   0.002981  -0.038724   7.877225  -0.000023  -0.000501
     5  H    0.358123  -0.002012   0.000207  -0.000023   0.463465  -0.000167
     6  H   -0.055875   0.287691  -0.016576  -0.000501  -0.000167   0.326429
     7  H   -0.008913   0.367548   0.002566  -0.000009  -0.000144  -0.036123
     8  H   -0.002196   0.043621   0.042763  -0.002105   0.001127  -0.001938
     9  H   -0.000476  -0.016569   0.287745  -0.055026  -0.000118  -0.001078
    10  H   -0.000029   0.002631   0.367675  -0.008995  -0.000142   0.000427
    11  H   -0.000021   0.000195  -0.002028   0.357977   0.000038  -0.000114
    12  H   -0.000046   0.000380   0.001378   0.369016   0.000000  -0.000013
    13  H    0.369017   0.001414   0.000373  -0.000045  -0.043022  -0.002147
              7          8          9         10         11         12
     1  O   -0.008913  -0.002196  -0.000476  -0.000029  -0.000021  -0.000046
     2  O    0.367548   0.043621  -0.016569   0.002631   0.000195   0.000380
     3  O    0.002566   0.042763   0.287745   0.367675  -0.002028   0.001378
     4  O   -0.000009  -0.002105  -0.055026  -0.008995   0.357977   0.369016
     5  H   -0.000144   0.001127  -0.000118  -0.000142   0.000038   0.000000
     6  H   -0.036123  -0.001938  -0.001078   0.000427  -0.000114  -0.000013
     7  H    0.460440  -0.013816   0.000431   0.000179  -0.000144  -0.000046
     8  H   -0.013816   0.193196  -0.001840  -0.013894   0.001153   0.000289
     9  H    0.000431  -0.001840   0.326281  -0.036134  -0.000167  -0.002229
    10  H    0.000179  -0.013894  -0.036134   0.460749  -0.000124  -0.000775
    11  H   -0.000144   0.001153  -0.000167  -0.000124   0.463597  -0.043077
    12  H   -0.000046   0.000289  -0.002229  -0.000775  -0.043077   0.467151
    13  H   -0.000766   0.000282  -0.000009  -0.000047  -0.000001   0.000010
             13
     1  O    0.369017
     2  O    0.001414
     3  O    0.000373
     4  O   -0.000045
     5  H   -0.043022
     6  H   -0.002147
     7  H   -0.000766
     8  H    0.000282
     9  H   -0.000009
    10  H   -0.000047
    11  H   -0.000001
    12  H    0.000010
    13  H    0.467032
 Mulliken atomic charges:
              1
     1  O   -0.501544
     2  O   -0.533913
     3  O   -0.534667
     4  O   -0.500940
     5  H    0.222668
     6  H    0.499985
     7  H    0.228798
     8  H    0.753358
     9  H    0.499189
    10  H    0.228478
    11  H    0.222718
    12  H    0.207962
    13  H    0.207907
 Sum of Mulliken charges=   1.00000
 Atomic charges with hydrogens summed into heavy atoms:
              1
     1  O   -0.070968
     2  O    0.948228
     3  O    0.193000
     4  O   -0.070260
     5  H    0.000000
     6  H    0.000000
     7  H    0.000000
     8  H    0.000000
     9  H    0.000000
    10  H    0.000000
    11  H    0.000000
    12  H    0.000000
    13  H    0.000000
 Sum of Mulliken charges=   1.00000
 Electronic spatial extent (au):  <R**2>=   838.4843
 Charge=     1.0000 electrons
 Dipole moment (field-independent basis, Debye):
    X=    -0.0007    Y=     0.8953    Z=     0.0008  Tot=     0.8953
 Quadrupole moment (field-independent basis, Debye-Ang):
   XX=    10.8956   YY=   -12.3303   ZZ=   -18.8794
   XY=    -0.0254   XZ=    -3.0399   YZ=    -0.0143
 Traceless Quadrupole moment (field-independent basis, Debye-Ang):
   XX=    17.6670   YY=    -5.5590   ZZ=   -12.1080
   XY=    -0.0254   XZ=    -3.0399   YZ=    -0.0143
 Octapole moment (field-independent basis, Debye-Ang**2):
  XXX=     0.3211  YYY=     5.8576  ZZZ=    -0.0005  XYY=    -0.0652
  XXY=    44.6024  XXZ=     0.0944  XZZ=    -0.0898  YZZ=    -2.3536
  YYZ=    -0.0202  XYZ=     6.6749
 Hexadecapole moment (field-independent basis, Debye-Ang**3):
 XXXX=  -267.9556 YYYY=  -173.0162 ZZZZ=   -25.2099 XXXY=    -0.1281
 XXXZ=    49.0550 YYYX=    -0.0464 YYYZ=    -0.0671 ZZZX=    -3.4539
 ZZZY=    -0.0173 XXYY=   -47.6907 XXZZ=   -70.9773 YYZZ=   -23.9279
 XXYZ=    -0.2089 YYXZ=   -30.2391 ZZXY=    -0.1725
 N-N= 1.414018876560D+02 E-N=-9.976078505556D+02  KE= 3.039419606797D+02
 ***** Axes restored to original set *****
 -------------------------------------------------------------------
 Center     Atomic                   Forces (Hartrees/Bohr)
 Number     Number              X              Y              Z
 -------------------------------------------------------------------
    1          8           0.000457435   -0.000375729   -0.000014045
    2          8          -0.000493864    0.003033588    0.000231433
    3          8           0.000359941    0.002044320    0.002131750
    4          8          -0.000526688   -0.000264385   -0.000317068
    5          1           0.001061150   -0.003979383    0.002227344
    6          1          -0.001594515   -0.002914642   -0.003338586
    7          1          -0.000065951    0.001224701    0.004292598
    8          1           0.000015270   -0.000390094   -0.000159723
    9          1           0.001819385   -0.004355037   -0.000054239
   10          1           0.000039243    0.004109617   -0.001751247
   11          1          -0.001044646   -0.000705935   -0.004488585
   12          1           0.002399653   -0.000362470    0.003992349
   13          1          -0.002426412    0.002935451   -0.002751981
 -------------------------------------------------------------------
 Cartesian Forces:  Max     0.004488585 RMS     0.002214444

 GradGradGradGradGradGradGradGradGradGradGradGradGradGradGradGradGradGrad
 Berny optimization.
 Internal  Forces:  Max     0.006149519 RMS     0.002454541
 Search for a local minimum.
 Step number   1 out of a maximum of  49
 All quantities printed in internal units (Hartrees-Bohrs-Radians)
 Second derivative matrix not updated -- first step.
     Eigenvalues ---    0.00230   0.00230   0.00230   0.00230   0.00886
     Eigenvalues ---    0.00886   0.02132   0.02181   0.03409   0.03416
     Eigenvalues ---    0.08818   0.08823   0.14576   0.14579   0.16000
     Eigenvalues ---    0.16000   0.16000   0.16000   0.16000   0.16000
     Eigenvalues ---    0.24142   0.24186   0.25000   0.25000   0.25000
     Eigenvalues ---    0.45846   0.45850   0.52761   0.52765   0.53068
     Eigenvalues ---    0.53069   0.53154   0.531561000.000001000.00000
     Eigenvalues --- 1000.000001000.000001000.000001000.00000
 RFO step:  Lambda=-7.73633061D-04.
 Linear search not attempted -- first point.
 Iteration  1 RMS(Cart)=  0.03395721 RMS(Int)=  0.00072094
 Iteration  2 RMS(Cart)=  0.00072784 RMS(Int)=  0.00013606
 Iteration  3 RMS(Cart)=  0.00000048 RMS(Int)=  0.00013606
 Variable       Old X    -DE/DX   Delta X   Delta X   Delta X     New X
                                 (Linear)    (Quad)   (Total)
    R1        1.83508  -0.00427   0.00000  -0.00803  -0.00803   1.82706
    R2        3.05059  -0.00173   0.00000  -0.01947  -0.01947   3.03113
    R3        1.83589  -0.00418   0.00000  -0.00787  -0.00787   1.82803
    R4        1.91006  -0.00614   0.00000  -0.01337  -0.01337   1.89669
    R5        1.83877  -0.00428   0.00000  -0.00810  -0.00810   1.83067
    R6        2.28025  -0.00313   0.00000  -0.01290  -0.01290   2.26735
    R7        2.28140  -0.00312   0.00000  -0.01288  -0.01288   2.26852
    R8        1.91001  -0.00615   0.00000  -0.01339  -0.01339   1.89662
    R9        1.83874  -0.00428   0.00000  -0.00811  -0.00811   1.83063
   R10        3.05116  -0.00172   0.00000  -0.01938  -0.01938   3.03179
   R11        1.83511  -0.00425   0.00000  -0.00799  -0.00799   1.82711
   R12        1.83590  -0.00416   0.00000  -0.00783  -0.00783   1.82807
    A1        2.19078   0.00083   0.00000  -0.00221  -0.00251   2.18827
    A2        1.86434  -0.00240   0.00000  -0.02349  -0.02385   1.84049
    A3        2.09684   0.00130   0.00000   0.00059   0.00028   2.09712
    A4        1.91895  -0.00152   0.00000  -0.01275  -0.01276   1.90619
    A5        2.05285   0.00081   0.00000   0.00290   0.00289   2.05574
    A6        1.99240   0.00060   0.00000   0.00177   0.00175   1.99415
    A7        2.05303   0.00079   0.00000   0.00284   0.00283   2.05586
    A8        1.99266   0.00061   0.00000   0.00192   0.00190   1.99456
    A9        1.91932  -0.00151   0.00000  -0.01267  -0.01267   1.90665
   A10        2.18744   0.00083   0.00000  -0.00222  -0.00252   2.18492
   A11        2.09737   0.00128   0.00000   0.00044   0.00014   2.09751
   A12        1.86381  -0.00239   0.00000  -0.02342  -0.02377   1.84004
   A13        3.05793  -0.00062   0.00000  -0.00248  -0.00248   3.05546
   A14        3.05800  -0.00007   0.00000  -0.00029  -0.00029   3.05771
   A15        3.05912  -0.00066   0.00000  -0.00265  -0.00265   3.05648
    D1       -2.80147  -0.00063   0.00000  -0.01808  -0.01791  -2.81939
    D2        0.93968   0.00070   0.00000   0.04188   0.04172   0.98140
    D3       -2.71928   0.00008   0.00000  -0.00034  -0.00032  -2.71960
    D4        1.24366  -0.00001   0.00000   0.00759   0.00758   1.25124
    D5       -2.95491  -0.00036   0.00000   0.01460   0.01459  -2.94032
    D6        1.04110   0.00049   0.00000   0.02930   0.02930   1.07040
    D7       -2.96825  -0.00035   0.00000   0.01515   0.01514  -2.95311
    D8        1.02672   0.00049   0.00000   0.02963   0.02964   1.05636
    D9        1.10458   0.00000   0.00000   0.00904   0.00903   1.11361
   D10       -2.85741   0.00010   0.00000   0.00135   0.00136  -2.85605
   D11       -2.67636  -0.00063   0.00000  -0.01764  -0.01748  -2.69384
   D12        1.07182   0.00071   0.00000   0.04175   0.04159   1.11341
         Item               Value     Threshold  Converged?
 Maximum Force            0.006150     0.000450     NO 
 RMS     Force            0.002455     0.000300     NO 
 Maximum Displacement     0.080926     0.001800     NO 
 RMS     Displacement     0.033736     0.001200     NO 
 Predicted change in Energy=-3.877411D-04
 GradGradGradGradGradGradGradGradGradGradGradGradGradGradGradGradGradGrad

                          Input orientation:                          
 ---------------------------------------------------------------------
 Center     Atomic     Atomic              Coordinates (Angstroms)
 Number     Number      Type              X           Y           Z
 ---------------------------------------------------------------------
    1          8             0        2.527648    0.986850    0.493738
    2          8             0        1.168109   -0.878842   -0.714130
    3          8             0       -1.171147   -1.111031   -0.239583
    4          8             0       -2.524657    1.002899    0.459928
    5          1             0        2.685637    1.888704    0.183138
    6          1             0        1.695846   -0.134823   -0.295427
    7          1             0        1.369466   -0.919016   -1.660870
    8          1             0       -0.001391   -0.949371   -0.455496
    9          1             0       -1.702464   -0.320143    0.075863
   10          1             0       -1.370694   -1.874407    0.322441
   11          1             0       -2.683514    1.318538    1.359912
   12          1             0       -3.314991    1.247048   -0.041650
   13          1             0        3.320125    0.743385    0.992205
 ---------------------------------------------------------------------
                    Distance matrix (angstroms):
                    1          2          3          4          5
     1  O    0.000000
     2  O    2.605398   0.000000
     3  O    4.315084   2.398171   0.000000
     4  O    5.052444   4.307654   2.605764   0.000000
     5  H    0.966836   3.281355   4.904272   5.292299   0.000000
     6  H    1.604003   1.003684   3.029150   4.435947   2.302905
     7  H    3.100975   0.968749   2.917471   4.832777   3.607765
     8  H    3.323557   1.199831   1.200451   3.319071   3.960131
     9  H    4.447100   3.029261   1.003647   1.604353   4.913852
    10  H    4.838719   2.917388   0.968728   3.103131   5.534820
    11  H    5.293060   4.895419   3.278481   0.966868   5.526090
    12  H    5.872884   5.006977   3.193083   0.967376   6.039022
    13  H    0.967349   3.189729   5.012752   5.874704   1.539129
                    6          7          8          9         10
     6  H    0.000000
     7  H    1.608079   0.000000
     8  H    1.889371   1.825676   0.000000
     9  H    3.423553   3.579335   1.889952   0.000000
    10  H    3.579327   3.514935   1.826437   1.608293   0.000000
    11  H    4.902163   5.527966   3.953846   2.301416   3.604821
    12  H    5.204081   5.409051   3.996932   2.251697   3.695447
    13  H    2.251117   3.688829   3.999215   5.215091   5.413428
                   11         12         13
    11  H    0.000000
    12  H    1.538911   0.000000
    13  H    6.042325   6.734039   0.000000
 Stoichiometry    H9O4(1+)
 Framework group  C1[X(H9O4)]
 Deg. of freedom    33
 Full point group                 C1
 Largest Abelian subgroup         C1      NOp   1
 Largest concise Abelian subgroup C1      NOp   1
                         Standard orientation:                         
 ---------------------------------------------------------------------
 Center     Atomic     Atomic              Coordinates (Angstroms)
 Number     Number      Type              X           Y           Z
 ---------------------------------------------------------------------
    1          8             0       -2.525269    1.073676   -0.135173
    2          8             0       -1.177927   -1.129352    0.210422
    3          8             0        1.183153   -1.131318   -0.209724
    4          8             0        2.519967    1.078750    0.134566
    5          1             0       -2.714592    1.752661    0.526573
    6          1             0       -1.703400   -0.278003    0.130008
    7          1             0       -1.417081   -1.574821    1.036762
    8          1             0        0.002414   -1.080013    0.000762
    9          1             0        1.710402   -0.281220   -0.128181
   10          1             0        1.421426   -1.576748   -1.036314
   11          1             0        2.709018    1.752402   -0.532730
   12          1             0        3.283805    1.083048    0.728155
   13          1             0       -3.291390    1.068647   -0.725764
 ---------------------------------------------------------------------
 Rotational constants (GHZ):      5.1259563      1.6816858      1.3042741
 Standard basis: Aug-CC-pVDZ (5D, 7F)
 There are   173 symmetry adapted basis functions of A   symmetry.
 Integral buffers will be    131072 words long.
 Raffenetti 1 integral format.
 Two-electron integral symmetry is turned on.
   173 basis functions,   271 primitive gaussians,   181 cartesian basis functions
    20 alpha electrons       20 beta electrons
       nuclear repulsion energy       142.1608194377 Hartrees.
 NAtoms=   13 NActive=   13 NUniq=   13 SFac= 7.50D-01 NAtFMM=   80 NAOKFM=F Big=F
 One-electron integrals computed using PRISM.
 NBasis=   173 RedAO= T  NBF=   173
 NBsUse=   173 1.00D-06 NBFU=   173
 Initial guess read from the read-write file:
 Initial guess orbital symmetries:
       Occupied  (A) (A) (A) (A) (A) (A) (A) (A) (A) (A) (A) (A)
                 (A) (A) (A) (A) (A) (A) (A) (A)
       Virtual   (A) (A) (A) (A) (A) (A) (A) (A) (A) (A) (A) (A)
                 (A) (A) (A) (A) (A) (A) (A) (A) (A) (A) (A) (A)
                 (A) (A) (A) (A) (A) (A) (A) (A) (A) (A) (A) (A)
                 (A) (A) (A) (A) (A) (A) (A) (A) (A) (A) (A) (A)
                 (A) (A) (A) (A) (A) (A) (A) (A) (A) (A) (A) (A)
                 (A) (A) (A) (A) (A) (A) (A) (A) (A) (A) (A) (A)
                 (A) (A) (A) (A) (A) (A) (A) (A) (A) (A) (A) (A)
                 (A) (A) (A) (A) (A) (A) (A) (A) (A) (A) (A) (A)
                 (A) (A) (A) (A) (A) (A) (A) (A) (A) (A) (A) (A)
                 (A) (A) (A) (A) (A) (A) (A) (A) (A) (A) (A) (A)
                 (A) (A) (A) (A) (A) (A) (A) (A) (A) (A) (A) (A)
                 (A) (A) (A) (A) (A) (A) (A) (A) (A) (A) (A) (A)
                 (A) (A) (A) (A) (A) (A) (A) (A) (A)
 Harris functional with IExCor=  205 diagonalized for initial guess.
 ExpMin= 2.97D-02 ExpMax= 1.17D+04 ExpMxC= 4.01D+02 IAcc=3 IRadAn=         5 AccDes= 0.00D+00
 HarFok:  IExCor= 205 AccDes= 0.00D+00 IRadAn=         5 IDoV=1
 ScaDFX=  1.000000  1.000000  1.000000  1.000000
 Requested convergence on RMS density matrix=1.00D-08 within 128 cycles.
 Requested convergence on MAX density matrix=1.00D-06.
 Requested convergence on             energy=1.00D-06.
 No special actions if energy rises.
 SCF Done:  E(RHF) =  -304.539898890     A.U. after   11 cycles
             Convg  =    0.7349D-08             -V/T =  2.0016
             S**2   =   0.0000
 ExpMin= 2.97D-02 ExpMax= 1.17D+04 ExpMxC= 4.01D+02 IAcc=3 IRadAn=         5 AccDes= 0.00D+00
 HarFok:  IExCor= 205 AccDes= 0.00D+00 IRadAn=         5 IDoV=1
 ScaDFX=  1.000000  1.000000  1.000000  1.000000
 Range of M.O.s used for correlation:     5   173
 NBasis=   173 NAE=    20 NBE=    20 NFC=     4 NFV=     0
 NROrb=    169 NOA=    16 NOB=    16 NVA=   153 NVB=   153
 Fully direct method using O(ONN) memory.
 JobTyp=1 Pass  1:  I=   5 to  20 NPSUse=  2 ParTrn=T ParDer=T DoDerP=T.
 Spin components of T(2) and E(2):
     alpha-alpha T2 =       0.3083061671D-01 E2=     -0.1146832094D+00
     alpha-beta  T2 =       0.1713801275D+00 E2=     -0.6612857577D+00
     beta-beta   T2 =       0.3083061671D-01 E2=     -0.1146832094D+00
 ANorm=    0.1110423956D+01
 E2 =    -0.8906521765D+00 EUMP2 =    -0.30543055106628D+03
 DoAtom=TTTTTTTTTTTTT
          Differentiating once with respect to electric field.
                with respect to dipole field.
          Differentiating once with respect to nuclear coordinates.
          There are   1 degrees of freedom in the 1st order CPHF.
 Petite list used in FoFDir.
 MinBra= 0 MaxBra= 2 Meth= 1.
 IRaf=       0 NMat=   1 IRICut=       1 DoRegI=T DoRafI=F ISym2E= 1 JSym2E=1.
     1 vectors were produced by pass  0.
 AX will form   1 AO Fock derivatives at one time.
     1 vectors were produced by pass  1.
     1 vectors were produced by pass  2.
     1 vectors were produced by pass  3.
     1 vectors were produced by pass  4.
     1 vectors were produced by pass  5.
     1 vectors were produced by pass  6.
     1 vectors were produced by pass  7.
     1 vectors were produced by pass  8.
     1 vectors were produced by pass  9.
     1 vectors were produced by pass 10.
     1 vectors were produced by pass 11.
 Inv2:  IOpt= 1 Iter= 1 AM= 2.85D-16 Conv= 1.00D-12.
 Inverted reduced A of dimension   12 with in-core refinement.
 End of Minotr Frequency-dependent properties file   721 does not exist.
 ***** Axes restored to original set *****
 -------------------------------------------------------------------
 Center     Atomic                   Forces (Hartrees/Bohr)
 Number     Number              X              Y              Z
 -------------------------------------------------------------------
    1          8          -0.000584004   -0.000804734   -0.000030846
    2          8          -0.000748173    0.000018027    0.000268381
    3          8           0.000619743    0.000177846   -0.000243490
    4          8           0.000502928   -0.000550374   -0.000643405
    5          1          -0.000024126    0.000550750   -0.000274013
    6          1           0.000596520    0.000510082   -0.000405762
    7          1           0.000273386    0.000012201   -0.000009391
    8          1           0.000013330   -0.000220077   -0.000076808
    9          1          -0.000391876    0.000079646    0.000766155
   10          1          -0.000286323   -0.000000278    0.000006549
   11          1           0.000023314    0.000125300    0.000600644
   12          1          -0.000443645    0.000213224   -0.000322384
   13          1           0.000448928   -0.000111613    0.000364372
 -------------------------------------------------------------------
 Cartesian Forces:  Max     0.000804734 RMS     0.000400468

 GradGradGradGradGradGradGradGradGradGradGradGradGradGradGradGradGradGrad
 Berny optimization.
 Internal  Forces:  Max     0.000622381 RMS     0.000282613
 Search for a local minimum.
 Step number   2 out of a maximum of  49
 All quantities printed in internal units (Hartrees-Bohrs-Radians)
 Update second derivatives using D2CorX and points  1  2
 Trust test= 9.87D-01 RLast= 9.87D-02 DXMaxT set to 3.00D-01
     Eigenvalues ---    0.00230   0.00230   0.00230   0.00232   0.00886
     Eigenvalues ---    0.00886   0.02464   0.02512   0.03473   0.03537
     Eigenvalues ---    0.08528   0.08821   0.14251   0.14557   0.15679
     Eigenvalues ---    0.16000   0.16000   0.16000   0.16000   0.16259
     Eigenvalues ---    0.23918   0.24165   0.25000   0.25000   0.25063
     Eigenvalues ---    0.45848   0.46091   0.52573   0.52763   0.53068
     Eigenvalues ---    0.53110   0.53155   0.561851000.000001000.00000
     Eigenvalues --- 1000.000001000.000001000.000001000.00000
 RFO step:  Lambda=-1.54834401D-05.
 Quartic linear search produced a step of -0.02004.
 Iteration  1 RMS(Cart)=  0.00602710 RMS(Int)=  0.00006712
 Iteration  2 RMS(Cart)=  0.00002633 RMS(Int)=  0.00000471
 Iteration  3 RMS(Cart)=  0.00000000 RMS(Int)=  0.00000471
 Variable       Old X    -DE/DX   Delta X   Delta X   Delta X     New X
                                 (Linear)    (Quad)   (Total)
    R1        1.82706   0.00060   0.00016   0.00078   0.00094   1.82800
    R2        3.03113  -0.00031   0.00039  -0.00422  -0.00383   3.02729
    R3        1.82803   0.00058   0.00016   0.00076   0.00092   1.82895
    R4        1.89669   0.00019   0.00027  -0.00012   0.00014   1.89683
    R5        1.83067   0.00007   0.00016  -0.00020  -0.00004   1.83063
    R6        2.26735  -0.00001   0.00026  -0.00055  -0.00029   2.26706
    R7        2.26852   0.00000   0.00026  -0.00052  -0.00026   2.26826
    R8        1.89662   0.00019   0.00027  -0.00014   0.00013   1.89675
    R9        1.83063   0.00006   0.00016  -0.00021  -0.00005   1.83058
   R10        3.03179  -0.00030   0.00039  -0.00417  -0.00378   3.02801
   R11        1.82711   0.00060   0.00016   0.00078   0.00094   1.82805
   R12        1.82807   0.00058   0.00016   0.00076   0.00092   1.82900
    A1        2.18827  -0.00018   0.00005  -0.00056  -0.00050   2.18777
    A2        1.84049   0.00008   0.00048   0.00027   0.00075   1.84124
    A3        2.09712   0.00015  -0.00001   0.00160   0.00159   2.09871
    A4        1.90619  -0.00027   0.00026  -0.00074  -0.00049   1.90570
    A5        2.05574   0.00036  -0.00006   0.00352   0.00345   2.05919
    A6        1.99415   0.00018  -0.00004   0.00279   0.00274   1.99689
    A7        2.05586   0.00035  -0.00006   0.00348   0.00342   2.05927
    A8        1.99456   0.00019  -0.00004   0.00290   0.00286   1.99741
    A9        1.90665  -0.00027   0.00025  -0.00069  -0.00045   1.90620
   A10        2.18492  -0.00017   0.00005  -0.00053  -0.00047   2.18445
   A11        2.09751   0.00014   0.00000   0.00151   0.00151   2.09902
   A12        1.84004   0.00008   0.00048   0.00031   0.00079   1.84083
   A13        3.05546  -0.00057   0.00005  -0.00233  -0.00228   3.05317
   A14        3.05771  -0.00007   0.00001  -0.00030  -0.00030   3.05741
   A15        3.05648  -0.00062   0.00005  -0.00255  -0.00249   3.05398
    D1       -2.81939   0.00006   0.00036   0.00101   0.00136  -2.81802
    D2        0.98140  -0.00006  -0.00084  -0.00160  -0.00243   0.97896
    D3       -2.71960   0.00015   0.00001   0.00257   0.00258  -2.71703
    D4        1.25124  -0.00017  -0.00015  -0.00415  -0.00430   1.24694
    D5       -2.94032   0.00006  -0.00029  -0.00111  -0.00140  -2.94172
    D6        1.07040  -0.00009  -0.00059  -0.00660  -0.00720   1.06320
    D7       -2.95311   0.00006  -0.00030  -0.00039  -0.00069  -2.95380
    D8        1.05636  -0.00009  -0.00059  -0.00606  -0.00666   1.04970
    D9        1.11361  -0.00016  -0.00018  -0.00273  -0.00291   1.11071
   D10       -2.85605   0.00017  -0.00003   0.00419   0.00417  -2.85189
   D11       -2.69384   0.00006   0.00035  -0.00007   0.00028  -2.69356
   D12        1.11341  -0.00007  -0.00083  -0.00262  -0.00345   1.10996
         Item               Value     Threshold  Converged?
 Maximum Force            0.000622     0.000450     NO 
 RMS     Force            0.000283     0.000300     YES
 Maximum Displacement     0.016683     0.001800     NO 
 RMS     Displacement     0.006017     0.001200     NO 
 Predicted change in Energy=-7.942147D-06
 GradGradGradGradGradGradGradGradGradGradGradGradGradGradGradGradGradGrad

                          Input orientation:                          
 ---------------------------------------------------------------------
 Center     Atomic     Atomic              Coordinates (Angstroms)
 Number     Number      Type              X           Y           Z
 ---------------------------------------------------------------------
    1          8             0        2.532747    0.986190    0.490900
    2          8             0        1.167837   -0.875354   -0.712833
    3          8             0       -1.170940   -1.107990   -0.237691
    4          8             0       -2.529683    1.000258    0.461129
    5          1             0        2.694465    1.887357    0.178680
    6          1             0        1.698376   -0.131831   -0.296615
    7          1             0        1.371888   -0.921296   -1.658711
    8          1             0       -0.001415   -0.945959   -0.453812
    9          1             0       -1.705104   -0.319416    0.078951
   10          1             0       -1.373258   -1.874441    0.319093
   11          1             0       -2.692060    1.314429    1.361532
   12          1             0       -3.317427    1.246718   -0.044317
   13          1             0        3.322544    0.741127    0.993764
 ---------------------------------------------------------------------
                    Distance matrix (angstroms):
                    1          2          3          4          5
     1  O    0.000000
     2  O    2.603324   0.000000
     3  O    4.316680   2.397865   0.000000
     4  O    5.062537   4.309033   2.603698   0.000000
     5  H    0.967335   3.279933   4.907833   5.306453   0.000000
     6  H    1.601975   1.003761   3.031391   4.442104   2.301134
     7  H    3.099503   0.968727   2.918926   4.838217   3.607457
     8  H    3.323801   1.199678   1.200313   3.319189   3.961753
     9  H    4.453502   3.031465   1.003715   1.602351   4.923007
    10  H    4.844543   2.918939   0.968704   3.101837   5.542311
    11  H    5.307009   4.898668   3.277108   0.967365   5.544550
    12  H    5.880379   5.006765   3.192092   0.967863   6.050040
    13  H    0.967836   3.188768   5.012695   5.882126   1.540353
                    6          7          8          9         10
     6  H    0.000000
     7  H    1.607841   0.000000
     8  H    1.891244   1.827115   0.000000
     9  H    3.429273   3.584635   1.891811   0.000000
    10  H    3.584790   3.515113   1.827954   1.608072   0.000000
    11  H    4.910911   5.534980   3.955300   2.299684   3.604832
    12  H    5.207910   5.412598   3.996430   2.251123   3.695064
    13  H    2.250567   3.688405   3.998804   5.219087   5.417280
                   11         12         13
    11  H    0.000000
    12  H    1.540156   0.000000
    13  H    6.053047   6.739617   0.000000
 Stoichiometry    H9O4(1+)
 Framework group  C1[X(H9O4)]
 Deg. of freedom    33
 Full point group                 C1
 Largest Abelian subgroup         C1      NOp   1
 Largest concise Abelian subgroup C1      NOp   1
                         Standard orientation:                         
 ---------------------------------------------------------------------
 Center     Atomic     Atomic              Coordinates (Angstroms)
 Number     Number      Type              X           Y           Z
 ---------------------------------------------------------------------
    1          8             0       -2.530430    1.071145   -0.134498
    2          8             0       -1.177744   -1.126292    0.210188
    3          8             0        1.183112   -1.128335   -0.209468
    4          8             0        2.524986    1.076372    0.133870
    5          1             0       -2.723902    1.748822    0.528118
    6          1             0       -1.706095   -0.276487    0.131366
    7          1             0       -1.419851   -1.576574    1.033026
    8          1             0        0.002475   -1.076819    0.000755
    9          1             0        1.713231   -0.279783   -0.129617
   10          1             0        1.424450   -1.578818   -1.032395
   11          1             0        2.717929    1.748872   -0.534195
   12          1             0        3.285716    1.081127    0.732223
   13          1             0       -3.293347    1.066533   -0.730017
 ---------------------------------------------------------------------
 Rotational constants (GHZ):      5.1482421      1.6762975      1.3024023
 Standard basis: Aug-CC-pVDZ (5D, 7F)
 There are   173 symmetry adapted basis functions of A   symmetry.
 Integral buffers will be    131072 words long.
 Raffenetti 1 integral format.
 Two-electron integral symmetry is turned on.
   173 basis functions,   271 primitive gaussians,   181 cartesian basis functions
    20 alpha electrons       20 beta electrons
       nuclear repulsion energy       142.1468055816 Hartrees.
 NAtoms=   13 NActive=   13 NUniq=   13 SFac= 7.50D-01 NAtFMM=   80 NAOKFM=F Big=F
 One-electron integrals computed using PRISM.
 NBasis=   173 RedAO= T  NBF=   173
 NBsUse=   173 1.00D-06 NBFU=   173
 Initial guess read from the read-write file:
 Initial guess orbital symmetries:
       Occupied  (A) (A) (A) (A) (A) (A) (A) (A) (A) (A) (A) (A)
                 (A) (A) (A) (A) (A) (A) (A) (A)
       Virtual   (A) (A) (A) (A) (A) (A) (A) (A) (A) (A) (A) (A)
                 (A) (A) (A) (A) (A) (A) (A) (A) (A) (A) (A) (A)
                 (A) (A) (A) (A) (A) (A) (A) (A) (A) (A) (A) (A)
                 (A) (A) (A) (A) (A) (A) (A) (A) (A) (A) (A) (A)
                 (A) (A) (A) (A) (A) (A) (A) (A) (A) (A) (A) (A)
                 (A) (A) (A) (A) (A) (A) (A) (A) (A) (A) (A) (A)
                 (A) (A) (A) (A) (A) (A) (A) (A) (A) (A) (A) (A)
                 (A) (A) (A) (A) (A) (A) (A) (A) (A) (A) (A) (A)
                 (A) (A) (A) (A) (A) (A) (A) (A) (A) (A) (A) (A)
                 (A) (A) (A) (A) (A) (A) (A) (A) (A) (A) (A) (A)
                 (A) (A) (A) (A) (A) (A) (A) (A) (A) (A) (A) (A)
                 (A) (A) (A) (A) (A) (A) (A) (A) (A) (A) (A) (A)
                 (A) (A) (A) (A) (A) (A) (A) (A) (A)
 Requested convergence on RMS density matrix=1.00D-08 within 128 cycles.
 Requested convergence on MAX density matrix=1.00D-06.
 Requested convergence on             energy=1.00D-06.
 No special actions if energy rises.
 SCF Done:  E(RHF) =  -304.539831218     A.U. after    8 cycles
             Convg  =    0.2597D-08             -V/T =  2.0016
             S**2   =   0.0000
 ExpMin= 2.97D-02 ExpMax= 1.17D+04 ExpMxC= 4.01D+02 IAcc=3 IRadAn=         5 AccDes= 0.00D+00
 HarFok:  IExCor= 205 AccDes= 0.00D+00 IRadAn=         5 IDoV=1
 ScaDFX=  1.000000  1.000000  1.000000  1.000000
 Range of M.O.s used for correlation:     5   173
 NBasis=   173 NAE=    20 NBE=    20 NFC=     4 NFV=     0
 NROrb=    169 NOA=    16 NOB=    16 NVA=   153 NVB=   153
 Fully direct method using O(ONN) memory.
 JobTyp=1 Pass  1:  I=   5 to  20 NPSUse=  2 ParTrn=T ParDer=T DoDerP=T.
 Spin components of T(2) and E(2):
     alpha-alpha T2 =       0.3083772835D-01 E2=     -0.1146982383D+00
     alpha-beta  T2 =       0.1714116077D+00 E2=     -0.6613360975D+00
     beta-beta   T2 =       0.3083772835D-01 E2=     -0.1146982383D+00
 ANorm=    0.1110444535D+01
 E2 =    -0.8907325740D+00 EUMP2 =    -0.30543056379243D+03
 DoAtom=TTTTTTTTTTTTT
          Differentiating once with respect to electric field.
                with respect to dipole field.
          Differentiating once with respect to nuclear coordinates.
          There are   1 degrees of freedom in the 1st order CPHF.
 Petite list used in FoFDir.
 MinBra= 0 MaxBra= 2 Meth= 1.
 IRaf=       0 NMat=   1 IRICut=       1 DoRegI=T DoRafI=F ISym2E= 1 JSym2E=1.
     1 vectors were produced by pass  0.
 AX will form   1 AO Fock derivatives at one time.
     1 vectors were produced by pass  1.
     1 vectors were produced by pass  2.
     1 vectors were produced by pass  3.
     1 vectors were produced by pass  4.
     1 vectors were produced by pass  5.
     1 vectors were produced by pass  6.
     1 vectors were produced by pass  7.
     1 vectors were produced by pass  8.
     1 vectors were produced by pass  9.
     1 vectors were produced by pass 10.
     1 vectors were produced by pass 11.
 Inv2:  IOpt= 1 Iter= 1 AM= 2.72D-16 Conv= 1.00D-12.
 Inverted reduced A of dimension   12 with in-core refinement.
 End of Minotr Frequency-dependent properties file   721 does not exist.
 ***** Axes restored to original set *****
 -------------------------------------------------------------------
 Center     Atomic                   Forces (Hartrees/Bohr)
 Number     Number              X              Y              Z
 -------------------------------------------------------------------
    1          8          -0.000140533   -0.000405806    0.000078277
    2          8          -0.000590132   -0.000031783    0.000148132
    3          8           0.000457863    0.000051557   -0.000209894
    4          8           0.000063015   -0.000220150   -0.000403693
    5          1          -0.000036572    0.000075884   -0.000070717
    6          1           0.000504022    0.000462406   -0.000246724
    7          1           0.000134537   -0.000031479   -0.000014816
    8          1           0.000015551   -0.000199867   -0.000066235
    9          1          -0.000298643    0.000179476    0.000631679
   10          1          -0.000145415   -0.000031690   -0.000022477
   11          1           0.000033102   -0.000008868    0.000101444
   12          1          -0.000062101    0.000094959    0.000001506
   13          1           0.000065307    0.000065361    0.000073517
 -------------------------------------------------------------------
 Cartesian Forces:  Max     0.000631679 RMS     0.000238564

 GradGradGradGradGradGradGradGradGradGradGradGradGradGradGradGradGradGrad
 Berny optimization.
 Internal  Forces:  Max     0.000524156 RMS     0.000166692
 Search for a local minimum.
 Step number   3 out of a maximum of  49
 All quantities printed in internal units (Hartrees-Bohrs-Radians)
 Update second derivatives using D2CorX and points  1  2  3
 Trust test= 1.60D+00 RLast= 1.61D-02 DXMaxT set to 3.00D-01
     Eigenvalues ---    0.00230   0.00230   0.00230   0.00249   0.00876
     Eigenvalues ---    0.00888   0.01732   0.02455   0.02515   0.03418
     Eigenvalues ---    0.06974   0.08821   0.12652   0.14581   0.15258
     Eigenvalues ---    0.16000   0.16000   0.16000   0.16021   0.16318
     Eigenvalues ---    0.22085   0.24159   0.24268   0.25000   0.25015
     Eigenvalues ---    0.45848   0.46197   0.52763   0.52816   0.53068
     Eigenvalues ---    0.53111   0.53155   0.633771000.000001000.00000
     Eigenvalues --- 1000.000001000.000001000.000001000.00000
 RFO step:  Lambda=-1.17453539D-05.
 Quartic linear search produced a step of  1.52672.
 Iteration  1 RMS(Cart)=  0.02924738 RMS(Int)=  0.00026733
 Iteration  2 RMS(Cart)=  0.00037250 RMS(Int)=  0.00003825
 Iteration  3 RMS(Cart)=  0.00000010 RMS(Int)=  0.00003825
 Variable       Old X    -DE/DX   Delta X   Delta X   Delta X     New X
                                 (Linear)    (Quad)   (Total)
    R1        1.82800   0.00009   0.00144  -0.00061   0.00082   1.82882
    R2        3.02729  -0.00020  -0.00585  -0.00353  -0.00938   3.01792
    R3        1.82895   0.00007   0.00141  -0.00065   0.00075   1.82970
    R4        1.89683   0.00029   0.00022   0.00100   0.00122   1.89806
    R5        1.83063   0.00004  -0.00006  -0.00004  -0.00010   1.83053
    R6        2.26706  -0.00005  -0.00044  -0.00073  -0.00117   2.26589
    R7        2.26826  -0.00004  -0.00040  -0.00065  -0.00105   2.26721
    R8        1.89675   0.00028   0.00020   0.00099   0.00119   1.89793
    R9        1.83058   0.00004  -0.00007  -0.00005  -0.00011   1.83047
   R10        3.02801  -0.00020  -0.00578  -0.00347  -0.00924   3.01876
   R11        1.82805   0.00009   0.00143  -0.00062   0.00082   1.82887
   R12        1.82900   0.00007   0.00141  -0.00065   0.00075   1.82975
    A1        2.18777  -0.00012  -0.00077  -0.00085  -0.00163   2.18614
    A2        1.84124  -0.00001   0.00115  -0.00064   0.00050   1.84174
    A3        2.09871   0.00016   0.00243   0.00208   0.00450   2.10321
    A4        1.90570  -0.00012  -0.00076   0.00119   0.00033   1.90603
    A5        2.05919   0.00025   0.00527   0.00373   0.00894   2.06813
    A6        1.99689   0.00007   0.00419   0.00212   0.00623   2.00312
    A7        2.05927   0.00024   0.00522   0.00371   0.00885   2.06812
    A8        1.99741   0.00008   0.00436   0.00226   0.00653   2.00395
    A9        1.90620  -0.00012  -0.00069   0.00123   0.00044   1.90663
   A10        2.18445  -0.00012  -0.00072  -0.00083  -0.00156   2.18289
   A11        2.09902   0.00015   0.00231   0.00196   0.00426   2.10328
   A12        1.84083  -0.00001   0.00120  -0.00068   0.00051   1.84134
   A13        3.05317  -0.00048  -0.00348  -0.00314  -0.00662   3.04656
   A14        3.05741  -0.00003  -0.00045  -0.00007  -0.00052   3.05689
   A15        3.05398  -0.00052  -0.00381  -0.00348  -0.00728   3.04670
    D1       -2.81802   0.00004   0.00208   0.00861   0.01070  -2.80733
    D2        0.97896  -0.00002  -0.00371   0.00766   0.00394   0.98291
    D3       -2.71703   0.00011   0.00393   0.00491   0.00886  -2.70817
    D4        1.24694  -0.00011  -0.00657  -0.00311  -0.00970   1.23724
    D5       -2.94172   0.00009  -0.00213   0.01937   0.01729  -2.92443
    D6        1.06320  -0.00007  -0.01099   0.01130   0.00026   1.06346
    D7       -2.95380   0.00009  -0.00105   0.02039   0.01939  -2.93441
    D8        1.04970  -0.00007  -0.01017   0.01212   0.00190   1.05160
    D9        1.11071  -0.00010  -0.00444  -0.00077  -0.00523   1.10548
   D10       -2.85189   0.00012   0.00636   0.00748   0.01385  -2.83803
   D11       -2.69356   0.00003   0.00042   0.00615   0.00658  -2.68698
   D12        1.10996  -0.00003  -0.00527   0.00550   0.00023   1.11019
         Item               Value     Threshold  Converged?
 Maximum Force            0.000524     0.000450     NO 
 RMS     Force            0.000167     0.000300     YES
 Maximum Displacement     0.052785     0.001800     NO 
 RMS     Displacement     0.029356     0.001200     NO 
 Predicted change in Energy=-1.336830D-05
 GradGradGradGradGradGradGradGradGradGradGradGradGradGradGradGradGradGrad

                          Input orientation:                          
 ---------------------------------------------------------------------
 Center     Atomic     Atomic              Coordinates (Angstroms)
 Number     Number      Type              X           Y           Z
 ---------------------------------------------------------------------
    1          8             0        2.556139    0.971469    0.492210
    2          8             0        1.163317   -0.855991   -0.721606
    3          8             0       -1.166575   -1.103137   -0.217093
    4          8             0       -2.552819    0.992099    0.448682
    5          1             0        2.716722    1.878663    0.195911
    6          1             0        1.705941   -0.121374   -0.303596
    7          1             0        1.361249   -0.898904   -1.668870
    8          1             0       -0.001462   -0.933612   -0.447729
    9          1             0       -1.712929   -0.319026    0.091731
   10          1             0       -1.363062   -1.869208    0.342191
   11          1             0       -2.713785    1.322795    1.343870
   12          1             0       -3.345240    1.221418   -0.058280
   13          1             0        3.350476    0.714601    0.982646
 ---------------------------------------------------------------------
                    Distance matrix (angstroms):
                    1          2          3          4          5
     1  O    0.000000
     2  O    2.598637   0.000000
     3  O    4.320382   2.396667   0.000000
     4  O    5.109185   4.312155   2.599027   0.000000
     5  H    0.967771   3.276162   4.913421   5.349575   0.000000
     6  H    1.597013   1.004408   3.036888   4.465734   2.295939
     7  H    3.097793   0.968673   2.922202   4.835271   3.609653
     8  H    3.324777   1.199060   1.199758   3.319840   3.963797
     9  H    4.477800   3.036880   1.004343   1.597460   4.945957
    10  H    4.842735   2.922475   0.968643   3.100635   5.541892
    11  H    5.349846   4.903593   3.273470   0.967797   5.578280
    12  H    5.932267   5.008265   3.189884   0.968261   6.102784
    13  H    0.968236   3.186676   5.014708   5.933887   1.541310
                    6          7          8          9         10
     6  H    0.000000
     7  H    1.608520   0.000000
     8  H    1.896241   1.830129   0.000000
     9  H    3.447320   3.589783   1.896800   0.000000
    10  H    3.590368   3.522460   1.831192   1.608789   0.000000
    11  H    4.932925   5.533394   3.957005   2.294589   3.607865
    12  H    5.232370   5.407477   3.997083   2.249425   3.693423
    13  H    2.248949   3.686592   3.999759   5.244062   5.413288
                   11         12         13
    11  H    0.000000
    12  H    1.541115   0.000000
    13  H    6.105379   6.795073   0.000000
 Stoichiometry    H9O4(1+)
 Framework group  C1[X(H9O4)]
 Deg. of freedom    33
 Full point group                 C1
 Largest Abelian subgroup         C1      NOp   1
 Largest concise Abelian subgroup C1      NOp   1
                         Standard orientation:                         
 ---------------------------------------------------------------------
 Center     Atomic     Atomic              Coordinates (Angstroms)
 Number     Number      Type              X           Y           Z
 ---------------------------------------------------------------------
    1          8             0       -2.553629    1.057985   -0.140515
    2          8             0       -1.173675   -1.112910    0.228067
    3          8             0        1.179345   -1.115281   -0.227243
    4          8             0        2.547858    1.063573    0.139782
    5          1             0       -2.744778    1.748050    0.510526
    6          1             0       -1.713976   -0.270419    0.143694
    7          1             0       -1.408880   -1.560960    1.054055
    8          1             0        0.002595   -1.063312    0.000748
    9          1             0        1.721451   -0.274075   -0.142398
   10          1             0        1.414096   -1.564440   -1.052723
   11          1             0        2.738085    1.748647   -0.516814
   12          1             0        3.314194    1.052341    0.731502
   13          1             0       -3.321979    1.037231   -0.729317
 ---------------------------------------------------------------------
 Rotational constants (GHZ):      5.2408646      1.6521596      1.2958719
 Standard basis: Aug-CC-pVDZ (5D, 7F)
 There are   173 symmetry adapted basis functions of A   symmetry.
 Integral buffers will be    131072 words long.
 Raffenetti 1 integral format.
 Two-electron integral symmetry is turned on.
   173 basis functions,   271 primitive gaussians,   181 cartesian basis functions
    20 alpha electrons       20 beta electrons
       nuclear repulsion energy       142.0863189280 Hartrees.
 NAtoms=   13 NActive=   13 NUniq=   13 SFac= 7.50D-01 NAtFMM=   80 NAOKFM=F Big=F
 One-electron integrals computed using PRISM.
 NBasis=   173 RedAO= T  NBF=   173
 NBsUse=   173 1.00D-06 NBFU=   173
 Initial guess read from the read-write file:
 Initial guess orbital symmetries:
       Occupied  (A) (A) (A) (A) (A) (A) (A) (A) (A) (A) (A) (A)
                 (A) (A) (A) (A) (A) (A) (A) (A)
       Virtual   (A) (A) (A) (A) (A) (A) (A) (A) (A) (A) (A) (A)
                 (A) (A) (A) (A) (A) (A) (A) (A) (A) (A) (A) (A)
                 (A) (A) (A) (A) (A) (A) (A) (A) (A) (A) (A) (A)
                 (A) (A) (A) (A) (A) (A) (A) (A) (A) (A) (A) (A)
                 (A) (A) (A) (A) (A) (A) (A) (A) (A) (A) (A) (A)
                 (A) (A) (A) (A) (A) (A) (A) (A) (A) (A) (A) (A)
                 (A) (A) (A) (A) (A) (A) (A) (A) (A) (A) (A) (A)
                 (A) (A) (A) (A) (A) (A) (A) (A) (A) (A) (A) (A)
                 (A) (A) (A) (A) (A) (A) (A) (A) (A) (A) (A) (A)
                 (A) (A) (A) (A) (A) (A) (A) (A) (A) (A) (A) (A)
                 (A) (A) (A) (A) (A) (A) (A) (A) (A) (A) (A) (A)
                 (A) (A) (A) (A) (A) (A) (A) (A) (A) (A) (A) (A)
                 (A) (A) (A) (A) (A) (A) (A) (A) (A)
 Harris functional with IExCor=  205 diagonalized for initial guess.
 ExpMin= 2.97D-02 ExpMax= 1.17D+04 ExpMxC= 4.01D+02 IAcc=3 IRadAn=         5 AccDes= 0.00D+00
 HarFok:  IExCor= 205 AccDes= 0.00D+00 IRadAn=         5 IDoV=1
 ScaDFX=  1.000000  1.000000  1.000000  1.000000
 Requested convergence on RMS density matrix=1.00D-08 within 128 cycles.
 Requested convergence on MAX density matrix=1.00D-06.
 Requested convergence on             energy=1.00D-06.
 No special actions if energy rises.
 SCF Done:  E(RHF) =  -304.539744097     A.U. after    8 cycles
             Convg  =    0.9828D-08             -V/T =  2.0016
             S**2   =   0.0000
 ExpMin= 2.97D-02 ExpMax= 1.17D+04 ExpMxC= 4.01D+02 IAcc=3 IRadAn=         5 AccDes= 0.00D+00
 HarFok:  IExCor= 205 AccDes= 0.00D+00 IRadAn=         5 IDoV=1
 ScaDFX=  1.000000  1.000000  1.000000  1.000000
 Range of M.O.s used for correlation:     5   173
 NBasis=   173 NAE=    20 NBE=    20 NFC=     4 NFV=     0
 NROrb=    169 NOA=    16 NOB=    16 NVA=   153 NVB=   153
 Fully direct method using O(ONN) memory.
 JobTyp=1 Pass  1:  I=   5 to  20 NPSUse=  2 ParTrn=T ParDer=T DoDerP=T.
 Spin components of T(2) and E(2):
     alpha-alpha T2 =       0.3084619760D-01 E2=     -0.1147248597D+00
     alpha-beta  T2 =       0.1714277322D+00 E2=     -0.6613852222D+00
     beta-beta   T2 =       0.3084619760D-01 E2=     -0.1147248597D+00
 ANorm=    0.1110459422D+01
 E2 =    -0.8908349415D+00 EUMP2 =    -0.30543057903876D+03
 DoAtom=TTTTTTTTTTTTT
          Differentiating once with respect to electric field.
                with respect to dipole field.
          Differentiating once with respect to nuclear coordinates.
          There are   1 degrees of freedom in the 1st order CPHF.
 Petite list used in FoFDir.
 MinBra= 0 MaxBra= 2 Meth= 1.
 IRaf=       0 NMat=   1 IRICut=       1 DoRegI=T DoRafI=F ISym2E= 1 JSym2E=1.
     1 vectors were produced by pass  0.
 AX will form   1 AO Fock derivatives at one time.
     1 vectors were produced by pass  1.
     1 vectors were produced by pass  2.
     1 vectors were produced by pass  3.
     1 vectors were produced by pass  4.
     1 vectors were produced by pass  5.
     1 vectors were produced by pass  6.
     1 vectors were produced by pass  7.
     1 vectors were produced by pass  8.
     1 vectors were produced by pass  9.
     1 vectors were produced by pass 10.
 Inv2:  IOpt= 1 Iter= 1 AM= 3.09D-16 Conv= 1.00D-12.
 Inverted reduced A of dimension   11 with in-core refinement.
 End of Minotr Frequency-dependent properties file   721 does not exist.
 ***** Axes restored to original set *****
 -------------------------------------------------------------------
 Center     Atomic                   Forces (Hartrees/Bohr)
 Number     Number              X              Y              Z
 -------------------------------------------------------------------
    1          8           0.000319398    0.000154158    0.000182058
    2          8          -0.000038874    0.000050670   -0.000022202
    3          8          -0.000105914   -0.000035104   -0.000040312
    4          8          -0.000393376    0.000200366   -0.000036121
    5          1          -0.000058819   -0.000329719    0.000087087
    6          1           0.000107266    0.000099175   -0.000075008
    7          1          -0.000114512   -0.000106261    0.000013356
    8          1           0.000021457   -0.000047868    0.000007421
    9          1           0.000103036    0.000104667    0.000239821
   10          1           0.000108798   -0.000057569   -0.000094777
   11          1           0.000052788   -0.000136671   -0.000311116
   12          1           0.000267531   -0.000039939    0.000213265
   13          1          -0.000268778    0.000144095   -0.000163472
 -------------------------------------------------------------------
 Cartesian Forces:  Max     0.000393376 RMS     0.000160747

 GradGradGradGradGradGradGradGradGradGradGradGradGradGradGradGradGradGrad
 Berny optimization.
 Internal  Forces:  Max     0.000345502 RMS     0.000136953
 Search for a local minimum.
 Step number   4 out of a maximum of  49
 All quantities printed in internal units (Hartrees-Bohrs-Radians)
 Update second derivatives using D2CorX and points  1  2  3  4
 Trust test= 1.14D+00 RLast= 4.25D-02 DXMaxT set to 3.00D-01
     Eigenvalues ---    0.00229   0.00230   0.00230   0.00251   0.00862
     Eigenvalues ---    0.00889   0.01377   0.02402   0.02453   0.03270
     Eigenvalues ---    0.07186   0.08821   0.12730   0.14647   0.15473
     Eigenvalues ---    0.16000   0.16000   0.16000   0.16127   0.16377
     Eigenvalues ---    0.21641   0.24161   0.24308   0.25001   0.25020
     Eigenvalues ---    0.45848   0.46924   0.52763   0.52988   0.53068
     Eigenvalues ---    0.53113   0.53155   0.661741000.000001000.00000
     Eigenvalues --- 1000.000001000.000001000.000001000.00000
 RFO step:  Lambda=-2.67280886D-06.
 Quartic linear search produced a step of  0.18688.
 Iteration  1 RMS(Cart)=  0.00565011 RMS(Int)=  0.00002330
 Iteration  2 RMS(Cart)=  0.00002338 RMS(Int)=  0.00000935
 Iteration  3 RMS(Cart)=  0.00000000 RMS(Int)=  0.00000935
 Variable       Old X    -DE/DX   Delta X   Delta X   Delta X     New X
                                 (Linear)    (Quad)   (Total)
    R1        1.82882  -0.00035   0.00015  -0.00058  -0.00043   1.82839
    R2        3.01792   0.00003  -0.00175  -0.00025  -0.00200   3.01591
    R3        1.82970  -0.00034   0.00014  -0.00057  -0.00043   1.82927
    R4        1.89806   0.00012   0.00023   0.00013   0.00036   1.89842
    R5        1.83053  -0.00003  -0.00002  -0.00014  -0.00016   1.83037
    R6        2.26589  -0.00006  -0.00022  -0.00037  -0.00059   2.26531
    R7        2.26721  -0.00004  -0.00020  -0.00030  -0.00050   2.26672
    R8        1.89793   0.00012   0.00022   0.00013   0.00036   1.89829
    R9        1.83047  -0.00003  -0.00002  -0.00014  -0.00016   1.83031
   R10        3.01876   0.00003  -0.00173  -0.00023  -0.00196   3.01680
   R11        1.82887  -0.00034   0.00015  -0.00058  -0.00042   1.82845
   R12        1.82975  -0.00034   0.00014  -0.00057  -0.00043   1.82932
    A1        2.18614  -0.00005  -0.00030  -0.00046  -0.00076   2.18538
    A2        1.84174  -0.00003   0.00009  -0.00020  -0.00011   1.84163
    A3        2.10321   0.00008   0.00084   0.00069   0.00153   2.10474
    A4        1.90603   0.00015   0.00006   0.00148   0.00151   1.90754
    A5        2.06813   0.00000   0.00167   0.00085   0.00251   2.07064
    A6        2.00312  -0.00011   0.00116   0.00006   0.00120   2.00433
    A7        2.06812   0.00000   0.00165   0.00087   0.00251   2.07063
    A8        2.00395  -0.00011   0.00122   0.00009   0.00129   2.00524
    A9        1.90663   0.00015   0.00008   0.00149   0.00155   1.90818
   A10        2.18289  -0.00005  -0.00029  -0.00046  -0.00076   2.18213
   A11        2.10328   0.00008   0.00080   0.00063   0.00142   2.10471
   A12        1.84134  -0.00003   0.00010  -0.00024  -0.00014   1.84120
   A13        3.04656  -0.00023  -0.00124  -0.00126  -0.00249   3.04406
   A14        3.05689  -0.00005  -0.00010  -0.00029  -0.00038   3.05650
   A15        3.04670  -0.00026  -0.00136  -0.00143  -0.00279   3.04391
    D1       -2.80733   0.00000   0.00200  -0.00130   0.00070  -2.80663
    D2        0.98291   0.00000   0.00074  -0.00133  -0.00059   0.98232
    D3       -2.70817   0.00000   0.00165   0.00015   0.00181  -2.70636
    D4        1.23724  -0.00001  -0.00181  -0.00241  -0.00423   1.23302
    D5       -2.92443   0.00006   0.00323  -0.00178   0.00146  -2.92297
    D6        1.06346  -0.00007   0.00005  -0.00511  -0.00507   1.05838
    D7       -2.93441   0.00006   0.00362  -0.00104   0.00259  -2.93182
    D8        1.05160  -0.00007   0.00035  -0.00446  -0.00412   1.04748
    D9        1.10548   0.00000  -0.00098  -0.00080  -0.00178   1.10370
   D10       -2.83803   0.00001   0.00259   0.00185   0.00444  -2.83359
   D11       -2.68698  -0.00001   0.00123  -0.00355  -0.00232  -2.68930
   D12        1.11019   0.00000   0.00004  -0.00335  -0.00331   1.10688
         Item               Value     Threshold  Converged?
 Maximum Force            0.000346     0.000450     YES
 RMS     Force            0.000137     0.000300     YES
 Maximum Displacement     0.015085     0.001800     NO 
 RMS     Displacement     0.005634     0.001200     NO 
 Predicted change in Energy=-1.731418D-06
 GradGradGradGradGradGradGradGradGradGradGradGradGradGradGradGradGradGrad

                          Input orientation:                          
 ---------------------------------------------------------------------
 Center     Atomic     Atomic              Coordinates (Angstroms)
 Number     Number      Type              X           Y           Z
 ---------------------------------------------------------------------
    1          8             0        2.561200    0.969673    0.491418
    2          8             0        1.162312   -0.851594   -0.722554
    3          8             0       -1.165609   -1.101218   -0.213006
    4          8             0       -2.557745    0.990425    0.447800
    5          1             0        2.724409    1.876458    0.196043
    6          1             0        1.707779   -0.118248   -0.305554
    7          1             0        1.359524   -0.898121   -1.669713
    8          1             0       -0.001453   -0.930268   -0.446043
    9          1             0       -1.714805   -0.318758    0.095577
   10          1             0       -1.361492   -1.869632    0.343120
   11          1             0       -2.721768    1.321418    1.342080
   12          1             0       -3.348504    1.219058   -0.061627
   13          1             0        3.354123    0.710599    0.982529
 ---------------------------------------------------------------------
                    Distance matrix (angstroms):
                    1          2          3          4          5
     1  O    0.000000
     2  O    2.597620   0.000000
     3  O    4.321331   2.396073   0.000000
     4  O    5.119173   4.312956   2.598014   0.000000
     5  H    0.967544   3.275094   4.915904   5.361864   0.000000
     6  H    1.595952   1.004600   3.038281   4.471174   2.294338
     7  H    3.098897   0.968590   2.922249   4.836886   3.611405
     8  H    3.325026   1.198748   1.199495   3.320037   3.964885
     9  H    4.483409   3.038265   1.004531   1.596424   4.953350
    10  H    4.844704   2.922610   0.968559   3.101920   5.545215
    11  H    5.362564   4.906197   3.272474   0.967572   5.593059
    12  H    5.940762   5.007183   3.189298   0.968033   6.113823
    13  H    0.968007   3.186188   5.013976   5.942594   1.540885
                    6          7          8          9         10
     6  H    0.000000
     7  H    1.609476   0.000000
     8  H    1.897522   1.830481   0.000000
     9  H    3.451839   3.592131   1.898123   0.000000
    10  H    3.592847   3.521258   1.831635   1.609757   0.000000
    11  H    4.940468   5.536623   3.958230   2.293016   3.609858
    12  H    5.235827   5.406840   3.996264   2.249125   3.694867
    13  H    2.248687   3.687925   3.999144   5.247884   5.413267
                   11         12         13
    11  H    0.000000
    12  H    1.540672   0.000000
    13  H    6.117092   6.802499   0.000000
 Stoichiometry    H9O4(1+)
 Framework group  C1[X(H9O4)]
 Deg. of freedom    33
 Full point group                 C1
 Largest Abelian subgroup         C1      NOp   1
 Largest concise Abelian subgroup C1      NOp   1
                         Standard orientation:                         
 ---------------------------------------------------------------------
 Center     Atomic     Atomic              Coordinates (Angstroms)
 Number     Number      Type              X           Y           Z
 ---------------------------------------------------------------------
    1          8             0       -2.558649    1.055459   -0.141152
    2          8             0       -1.172810   -1.109891    0.230785
    3          8             0        1.178552   -1.112340   -0.229930
    4          8             0        2.552775    1.061154    0.140363
    5          1             0       -2.752456    1.745580    0.508706
    6          1             0       -1.715957   -0.268991    0.146540
    7          1             0       -1.407318   -1.561118    1.055144
    8          1             0        0.002604   -1.060115    0.000735
    9          1             0        1.723510   -0.272719   -0.145421
   10          1             0        1.412724   -1.565013   -1.053555
   11          1             0        2.746091    1.746079   -0.515155
   12          1             0        3.317290    1.048264    0.734027
[...]
 Vib (V=0) 10    0.121825D+01          0.085736          0.197414
 Vib (V=0) 11    0.121295D+01          0.083844          0.193057
 Vib (V=0) 12    0.115305D+01          0.061848          0.142411
 Vib (V=0) 13    0.105929D+01          0.025015          0.057598
 Vib (V=0) 14    0.105758D+01          0.024312          0.055981
 Electronic      0.100000D+01          0.000000          0.000000
 Translational   0.245407D+08          7.389886         17.015842
 Rotational      0.258810D+06          5.412981         12.463848
 ***** Axes restored to original set *****
 -------------------------------------------------------------------
 Center     Atomic                   Forces (Hartrees/Bohr)
 Number     Number              X              Y              Z
 -------------------------------------------------------------------
    1          8          -0.000000006    0.000041439    0.000007544
    2          8          -0.000020452    0.000099306    0.000013594
    3          8          -0.000068715    0.000025679    0.000040226
    4          8          -0.000062210   -0.000006088    0.000019735
    5          1          -0.000002727   -0.000025873    0.000012135
    6          1           0.000073501   -0.000091530   -0.000001958
    7          1          -0.000034268   -0.000013926    0.000006201
    8          1           0.000011011   -0.000058826   -0.000025365
    9          1           0.000070964    0.000023458   -0.000025876
   10          1           0.000025259   -0.000003764   -0.000018216
   11          1           0.000003068   -0.000004015   -0.000034415
   12          1           0.000026672   -0.000000612    0.000019770
   13          1          -0.000022098    0.000014752   -0.000013374
 -------------------------------------------------------------------
 Cartesian Forces:  Max     0.000099306 RMS     0.000037283

 GradGradGradGradGradGradGradGradGradGradGradGradGradGradGradGradGradGrad
 Berny optimization.
 Internal  Forces:  Max     0.000037186 RMS     0.000018417
 Search for a local minimum.
 Step number   1 out of a maximum of   2
 All quantities printed in internal units (Hartrees-Bohrs-Radians)
 Second derivative matrix not updated -- analytic derivatives used.
     Eigenvalues ---   -0.00007   0.00007   0.00008   0.00014   0.00243
     Eigenvalues ---    0.00255   0.00355   0.00693   0.00713   0.01065
     Eigenvalues ---    0.01236   0.02152   0.02219   0.02846   0.02914
     Eigenvalues ---    0.02957   0.03496   0.04390   0.05406   0.06951
     Eigenvalues ---    0.09296   0.09471   0.10326   0.10327   0.25431
     Eigenvalues ---    0.41138   0.41342   0.52522   0.52532   0.52667
     Eigenvalues ---    0.52692   0.53788   0.537991000.000001000.00000
     Eigenvalues --- 1000.000001000.000001000.000001000.00000
 Eigenvalue   1 out of range, new value =    0.000074 Eigenvector:
                           1
           R1           0.00072
           R2          -0.22442
           R3           0.00102
           R4           0.04434
           R5           0.00614
           R6          -0.47980
           R7           0.48158
           R8          -0.04423
           R9          -0.00616
           R10          0.22442
           R11         -0.00073
           R12         -0.00103
           A1           0.00577
           A2           0.01529
           A3           0.00993
           A4           0.03779
           A5          -0.12237
           A6          -0.12071
           A7           0.12280
           A8           0.12151
           A9          -0.03765
           A10         -0.00649
           A11         -0.00940
           A12         -0.01514
           A13          0.00395
           A14          0.00010
           A15         -0.00573
           D1          -0.11777
           D2          -0.18205
           D3          -0.01589
           D4           0.25099
           D5          -0.25931
           D6          -0.04681
           D7           0.26131
           D8           0.04624
           D9          -0.25961
           D10          0.00975
           D11          0.12729
           D12          0.19058
 Angle between quadratic step and forces=  83.51 degrees.
 Linear search not attempted -- first point.
 Iteration  1 RMS(Cart)=  0.01521224 RMS(Int)=  0.00025012
 Iteration  2 RMS(Cart)=  0.00020022 RMS(Int)=  0.00005164
 Iteration  3 RMS(Cart)=  0.00000012 RMS(Int)=  0.00005164
 Variable       Old X    -DE/DX   Delta X   Delta X   Delta X     New X
                                 (Linear)    (Quad)   (Total)
    R1        1.82827  -0.00003   0.00000   0.00003   0.00003   1.82830
    R2        3.01716   0.00001   0.00000  -0.02022  -0.02022   2.99695
    R3        1.82912  -0.00003   0.00000   0.00005   0.00005   1.82917
    R4        1.89851  -0.00002   0.00000   0.00396   0.00396   1.90247
    R5        1.83042  -0.00001   0.00000   0.00051   0.00051   1.83093
    R6        2.26468  -0.00001   0.00000  -0.04405  -0.04405   2.22063
    R7        2.26800   0.00000   0.00000   0.04403   0.04403   2.31204
    R8        1.89824  -0.00002   0.00000  -0.00419  -0.00419   1.89405
    R9        1.83036  -0.00001   0.00000  -0.00060  -0.00060   1.82976
   R10        3.01902   0.00001   0.00000   0.02060   0.02060   3.03962
   R11        1.82833  -0.00003   0.00000  -0.00017  -0.00017   1.82816
   R12        1.82917  -0.00003   0.00000  -0.00020  -0.00020   1.82898
    A1        2.18246   0.00000   0.00000  -0.00062  -0.00062   2.18184
    A2        1.84159  -0.00001   0.00000   0.00123   0.00123   1.84282
    A3        2.10396   0.00001   0.00000   0.00126   0.00126   2.10522
    A4        1.90868   0.00003   0.00000   0.00415   0.00403   1.91271
    A5        2.06833   0.00002   0.00000  -0.01062  -0.01069   2.05764
    A6        2.00269  -0.00004   0.00000  -0.01110  -0.01118   1.99151
    A7        2.06853   0.00003   0.00000   0.01251   0.01241   2.08094
    A8        2.00371  -0.00003   0.00000   0.01091   0.01080   2.01451
    A9        1.90899   0.00002   0.00000  -0.00334  -0.00349   1.90550
   A10        2.17950   0.00001   0.00000   0.00118   0.00118   2.18068
   A11        2.10313   0.00001   0.00000   0.00027   0.00027   2.10340
   A12        1.84109  -0.00001   0.00000  -0.00116  -0.00116   1.83993
   A13        3.03664   0.00002   0.00000   0.00060   0.00060   3.03724
   A14        3.05562   0.00003   0.00000   0.00013   0.00013   3.05575
   A15        3.03488   0.00003   0.00000   0.00150   0.00150   3.03638
    D1       -2.79021   0.00000   0.00000   0.03150   0.03150  -2.75872
    D2        1.00591   0.00000   0.00000   0.02748   0.02748   1.03339
    D3       -2.72947  -0.00001   0.00000  -0.04712  -0.04712  -2.77660
    D4        1.21351   0.00000   0.00000  -0.02396  -0.02395   1.18956
    D5       -2.92769   0.00001   0.00000  -0.02169  -0.02160  -2.94929
    D6        1.05628  -0.00001   0.00000  -0.00392  -0.00400   1.05228
    D7       -2.92572   0.00001   0.00000   0.02574   0.02583  -2.89989
    D8        1.05638  -0.00001   0.00000   0.00471   0.00461   1.06099
    D9        1.12804   0.00001   0.00000   0.01237   0.01237   1.14041
   D10       -2.81284   0.00000   0.00000   0.03812   0.03811  -2.77472
   D11       -2.71642   0.00001   0.00000  -0.01843  -0.01843  -2.73485
   D12        1.08791  -0.00001   0.00000  -0.01853  -0.01853   1.06938
         Item               Value     Threshold  Converged?
 Maximum Force            0.000037     0.000450     YES
 RMS     Force            0.000018     0.000300     YES
 Maximum Displacement     0.062058     0.001800     NO 
 RMS     Displacement     0.015245     0.001200     NO 
 Predicted change in Energy=-9.176934D-07
 GradGradGradGradGradGradGradGradGradGradGradGradGradGradGradGradGradGrad

 1\1\GINC-POLARIS-C20\Freq\RMP2-FC\Aug-CC-pVDZ\H9O4(1+)\G060005\14-Aug-
 2007\0\\#N Geom=AllCheck Guess=Read SCRF=Check GenChk RMP2(FC)/Aug-CC-
 pVDZ Freq\\Title Card Required\\1,1\O,2.5564507051,0.9675395984,0.4955
 997755\O,1.1615129243,-0.8505466914,-0.7281736381\O,-1.1640944571,-1.1
 035718177,-0.2083994095\O,-2.5534233104,0.9931946937,0.4442799947\H,2.
 7180320718,1.8758662904,0.2043136981\H,1.7066263334,-0.1166550832,-0.3
 115541295\H,1.3523603195,-0.8933009691,-1.6768396384\H,-0.0004982969,-
 0.9305201287,-0.4461387695\H,-1.7116140012,-0.3209255773,0.1025887796\
 H,-1.3548622043,-1.8714705164,0.350257477\H,-2.717876677,1.3283264142,
 1.3368724167\H,-3.3458621178,1.2153181675,-0.065271107\H,3.3512197106,
 0.7065376196,0.9825335504\\Version=AM64L-G03RevD.01\State=1-A\HF=-304.
 5397724\MP2=-305.4305835\RMSD=1.170e-09\RMSF=3.728e-05\ZeroPoint=0.105
 7228\Thermal=0.1156119\Dipole=0.0010563,0.3071997,0.1466558\DipoleDeri
 v=-0.5925359,-0.0923422,-0.0626375,-0.1324533,-0.6423807,-0.1251708,-0
 .1025516,-0.1407855,-0.6183839,-1.3248527,-0.2339292,0.0562216,-0.2607
 585,-0.6315588,-0.148004,0.0563897,-0.1213454,-0.5074797,-1.3240787,0.
 1013064,0.2161992,0.1163367,-0.6888723,-0.0761048,0.2367352,-0.1028172
 ,-0.4519532,-0.590252,0.1052479,0.0320525,0.1625809,-0.7588279,-0.0491
 218,0.038641,-0.0334018,-0.5026476,0.2720716,-0.0484735,-0.0335183,-0.
 0370416,0.3173492,0.0009702,-0.0397925,-0.012895,0.3143309,0.6093227,0
 .3599884,0.286988,0.4491881,0.7014205,0.2994156,0.365901,0.3089388,0.4
 368383,0.2737665,-0.0512993,-0.0134345,-0.0579519,0.340134,0.0418779,-
 0.0306098,0.0348033,0.3743889,1.9469982,0.2164905,-0.4459669,0.2246061
 ,0.2357049,-0.071163,-0.4629694,-0.0711664,0.3477921,0.6060421,-0.4477
 308,-0.1003352,-0.5648712,0.838337,0.2000072,-0.1204352,0.190502,0.300
 8067,0.2731557,0.0422678,0.0318703,0.0598991,0.3982001,-0.011603,0.026
 2076,-0.0045161,0.3161053,0.2724131,0.0561343,0.0169703,0.0541352,0.30
 92382,-0.0065031,0.0043612,0.0073205,0.3215911,0.2888025,0.031833,0.02
 48527,0.0378115,0.3063929,-0.0348967,0.035392,-0.0448197,0.3184841,0.2
 89147,-0.0394934,-0.0092621,-0.0514812,0.2748628,-0.0197037,-0.0072693
 ,-0.0098174,0.3501269\Polar=39.9622044,0.4429361,34.7733964,-0.8989575
 ,1.8029883,31.8565064\PG=C01 [X(H9O4)]\NImag=1\\0.42280860,-0.00203377
 ,0.56165228,0.21787778,-0.20648316,0.20881717,-0.00985591,-0.01963844,
 -0.01211376,0.33541912,-0.01732473,-0.01226695,-0.01274809,0.18315157,
 0.26045366,-0.01026007,-0.01360575,-0.00149057,-0.05206102,0.15205847,
 0.64213177,-0.00231965,-0.00438021,-0.00314519,-0.08643642,-0.01890042
 ,0.02747645,0.33554467,-0.00004373,0.00044659,0.00019410,-0.00988467,0
 .01414998,0.00510125,-0.07426536,0.64143835,0.00066256,0.00144731,0.00
 133200,0.03181149,0.00634804,0.00506688,-0.17514354,-0.15338615,0.2600
 3422,-0.00043122,-0.00019458,-0.00017875,-0.00229150,-0.00048673,0.000
 44189,-0.00972781,0.01875259,0.00702896,0.42081906,0.00026544,0.000918
 77,0.00043235,0.00520140,0.00180356,-0.00087614,0.02168917,-0.01862847
 ,-0.00768960,-0.17062972,0.14460288,0.00004073,0.00023320,0.00038361,0
 .00144204,0.00037234,-0.00000320,0.00765953,-0.00853338,0.00485166,0.1
 3610594,0.12274096,0.62748124,-0.05367750,-0.10903432,0.01362710,-0.00
 183319,-0.00141227,-0.00245282,-0.00060092,0.00021750,0.00016031,0.000
 14897,0.00029571,0.00002546,0.04933442,-0.05906645,-0.45673597,0.15353
 968,0.00088862,0.00095753,-0.00040937,0.00057094,-0.00006071,-0.000114
 11,0.00006733,-0.00023136,-0.00001125,0.07128015,0.47020350,-0.0055146
 1,0.13268933,-0.06170201,-0.00377786,-0.00265730,-0.00300074,-0.000407
 13,0.00000159,0.00005789,-0.00006832,0.00003535,-0.00013140,-0.0029832
 9,-0.15399443,0.06482364,-0.00304539,0.01104284,-0.00066804,-0.1321066
 4,-0.13479326,-0.05929076,0.00039417,0.00117712,0.00071821,0.00054817,
 -0.00072058,-0.00031987,0.00245385,-0.00088398,0.00573051,0.13371135,0
 .00870764,-0.00860875,0.00541313,-0.13392943,-0.20318879,-0.11573684,0
 .01094906,-0.00000948,-0.00425509,0.00042696,-0.00161279,-0.00049937,0
 .00171396,-0.00286259,0.00185336,0.12275453,0.20004236,-0.00200132,0.0
 0636643,-0.01168260,-0.03186267,-0.08211236,-0.10383370,0.01052440,-0.
 00143613,-0.00399023,0.00040305,-0.00117978,-0.00060329,0.00564078,0.0
 0110777,0.00597617,0.05605274,0.09311120,0.11675779,-0.00180474,-0.001
 94603,0.00027959,-0.06488033,-0.01705493,0.09710597,-0.00842601,-0.001
 20840,-0.00053501,0.00004753,0.00006749,-0.00013774,-0.00023019,-0.000
 38235,-0.00047000,0.00865674,0.00513505,-0.02021238,0.05331807,-0.0012
 7679,-0.00176321,0.00039214,-0.02495812,-0.02222247,-0.00741941,-0.002
 06071,0.00008127,0.00008862,-0.00012124,-0.00004436,0.00013870,-0.0005
 4436,-0.00042991,-0.00077125,0.01119083,0.00276437,-0.02693640,0.01289
 706,0.02284000,0.00063765,0.00054488,0.00110677,0.08709328,-0.04177347
 ,-0.49204112,-0.00467389,-0.00111369,0.00092191,-0.00031201,0.00037741
 ,-0.00000702,-0.00005981,-0.00011924,0.00009199,0.00531122,0.00579480,
 -0.01271174,-0.09446593,0.03370773,0.50550765,0.00425084,0.00755055,0.
 00625168,-0.03049335,0.00694698,-0.00078802,-0.02955522,-0.00354058,-0
 .00614173,0.00419466,-0.00961257,-0.00196909,0.00104205,-0.00097231,0.
 00055543,-0.00553248,-0.01616285,-0.01855243,0.01394672,0.00524597,0.0
 0599555,0.03323129,0.00012907,-0.00048018,-0.00025768,0.01197331,-0.02
 924666,-0.01878067,0.00649151,-0.05912915,0.00538217,0.00115172,-0.003
 59006,-0.00092634,-0.00020182,-0.00016622,-0.00012888,-0.01138554,0.00
 037756,0.00656025,0.00323590,-0.00171967,0.00307602,-0.00729503,0.0796
 5682,-0.00160477,-0.00341763,-0.00261663,-0.01769487,-0.01868876,-0.04
 868626,-0.02049293,0.00526278,-0.01846429,-0.00109453,0.00221824,0.000
 46292,-0.00027824,0.00012503,-0.00036971,-0.00668614,0.01188558,0.0100
 6983,0.01895079,0.00080033,-0.00302764,0.01497139,0.00555938,0.0709566
 9,0.00054711,0.00069635,0.00035857,0.00037800,-0.00129870,-0.00046398,
 -0.13330725,0.13143092,0.06828757,-0.00300631,-0.00649801,-0.00895663,
 0.00009178,-0.00023443,0.00003705,-0.00199866,-0.00103226,-0.00038225,
 -0.00031826,-0.00025287,0.00056302,-0.00551983,0.01226712,0.00467379,0
 .13498230,-0.00058989,-0.00181507,-0.00101199,-0.01507543,-0.00525762,
 0.00272260,0.10917560,-0.23877579,-0.05293792,-0.00388100,-0.00467522,
 0.00332879,-0.00045534,0.00031373,-0.00007681,0.00094473,0.00344785,0.
 00280313,-0.00043959,-0.00002208,-0.00074832,0.02457835,0.01532234,-0.
 00535977,-0.12125274,0.23963230,-0.00008170,-0.00033335,-0.00039451,-0
 .00195487,-0.00009005,0.00121091,0.08477032,-0.08645735,-0.06748767,-0
 .00794819,0.00241168,-0.01557729,-0.00005276,0.00005854,0.00008470,0.0
 0056353,0.00057446,0.00073509,-0.00005867,-0.00036962,0.00004297,0.001
 01324,-0.00004328,-0.00480719,-0.06099125,0.06056678,0.07634157,0.0000
 4552,0.00006198,-0.00013955,-0.00846660,0.00114996,0.00061242,-0.06495
 907,-0.06538555,0.07397970,-0.00179716,0.00101992,0.00169578,0.0000138
 7,-0.00004219,0.00001339,-0.00031686,0.00032473,0.00030875,-0.00026689
 ,0.00017066,-0.00011063,0.01400558,-0.01668762,0.00924594,0.00867595,0
 .01266354,-0.01668463,0.05334440,0.00032086,0.00023049,0.00015718,0.00
 492953,0.00010964,-0.00111657,-0.05238253,-0.33304540,0.20667102,0.000
 31428,0.00043407,-0.00122228,-0.00003987,-0.00004134,0.00004035,-0.000
 28480,-0.00052940,-0.00034289,-0.00002434,0.00053488,0.00021669,-0.007
 94667,-0.00067209,0.00220066,-0.01118107,-0.01695378,0.02153453,0.0657
 0385,0.35040854,-0.00010076,-0.00008094,-0.00027954,-0.00132109,0.0000
 7965,0.00091300,0.07371837,0.24097638,-0.18116455,0.00138743,-0.001387
 86,-0.00109483,0.00000860,-0.00000547,0.00002263,0.00054989,0.00003589
 ,0.00054633,-0.00020428,0.00037934,0.00005909,-0.00031072,-0.00010626,
 -0.00410042,-0.00537150,-0.01109344,0.00697559,-0.06897424,-0.22806221
 ,0.17794107,0.00014841,-0.00020217,-0.00021381,-0.00059102,-0.00025767
 ,-0.00007246,-0.00177807,0.00274403,-0.00044803,-0.05393126,0.05742864
 ,0.09519865,-0.00014124,0.00001735,0.00009470,0.00009073,0.00032246,0.
 00032105,0.00001449,0.00001788,0.00003745,0.00102566,0.00033437,-0.000
 00944,0.00233675,-0.00540050,0.00216881,-0.00022446,0.00038700,0.00038
 613,0.04959737,0.00001113,-0.00015818,-0.00002315,-0.00004206,-0.00004
 428,-0.00001157,0.00237864,-0.00298661,0.00049639,0.04152750,-0.074664
 78,-0.16952164,-0.00008483,0.00007196,0.00002677,0.00011774,0.00016629
 ,0.00004247,0.00001560,0.00001459,-0.00000468,0.00018011,-0.00028652,-
 0.00002952,-0.00387816,0.00405631,-0.00367803,0.00061452,-0.00055492,-
 0.00067949,-0.04244586,0.07112711,-0.00009569,-0.00006961,-0.00020333,
 -0.00069962,-0.00012935,0.00003991,-0.00304503,0.00271333,0.00089579,0
 .04413819,-0.14851721,-0.44340543,0.00004492,-0.00000251,0.00005290,0.
 00020747,0.00017799,0.00023334,0.00004182,-0.00005012,-0.00003351,0.00
 110731,0.00022511,-0.00024190,0.00424322,-0.00436988,-0.00085202,0.000
 00290,-0.00002555,0.00020770,-0.05904758,0.16156689,0.46358653,0.00008
 565,-0.00001469,0.00004168,0.00024048,-0.00003293,0.00000315,0.0009286
 1,-0.00001313,-0.00040699,-0.35465859,0.10151644,-0.23082191,-0.000068
 02,0.00001241,-0.00000923,-0.00008526,-0.00002727,-0.00007286,-0.00007
 001,0.00008929,0.00003348,-0.00029493,-0.00002543,-0.00000148,-0.00277
 636,-0.00034146,-0.00072010,0.00001489,0.00028535,0.00028043,0.0035203
 8,0.00160641,0.01311709,0.35319042,-0.00001970,-0.00007256,0.00000313,
 -0.00018056,-0.00007889,0.00005980,0.00104449,-0.00338595,-0.00218526,
 0.11312551,-0.04427344,0.05389614,-0.00002957,0.00004104,-0.00002451,0
 .00006608,0.00010549,0.00004521,0.00001409,0.00003738,-0.00000766,0.00
 032732,-0.00009081,-0.00026035,0.00122335,0.00468346,0.00581955,0.0004
 7949,0.00000324,0.00000144,-0.01297752,0.00322710,-0.01150656,-0.10307
 197,0.03979448,0.00008292,0.00003093,-0.00004491,0.00054079,0.00012306
 ,-0.00025050,0.00228258,-0.00339614,-0.00182021,-0.17997006,0.03145792
 ,-0.17227921,-0.00001750,-0.00001950,0.00006175,-0.00006648,-0.0000431
 4,0.00000313,0.00008279,-0.00002676,0.00012809,-0.00115814,-0.00020202
 ,0.00047259,-0.00190638,0.00608344,0.00366437,0.00000892,-0.00001291,-
 0.00011522,-0.03842756,0.01183288,-0.02035003,0.21856900,-0.04583315,0
 .19051864,-0.35675171,0.11809249,-0.22197731,0.00091736,0.00031312,-0.
 00025076,0.00024296,0.00001927,0.00002651,0.00008545,-0.00002334,0.000
 03711,0.00346611,-0.01125508,0.00679937,-0.00276972,0.00081743,-0.0001
 6686,0.00001287,-0.00039760,-0.00004938,-0.00030099,0.00001244,0.00002
 049,-0.00008522,0.00007371,-0.00002374,-0.00006918,-0.00008159,-0.0000
 4827,-0.00006774,-0.00000073,-0.00001503,-0.00002726,-0.00000102,-0.00
 002090,0.35534707,0.07092092,-0.08134725,0.06039234,-0.00243572,-0.005
 16870,-0.00198580,-0.00031017,-0.00009462,0.00013459,-0.00005262,-0.00
 003881,0.00000412,0.03829505,-0.01105966,0.02300642,0.00077429,0.00990
 789,0.00197110,-0.00030956,-0.00007078,0.00004954,0.00070072,0.0000246
 4,-0.00029595,0.00001050,0.00004358,0.00000614,-0.00007330,0.00007607,
 -0.00005703,0.00003199,0.00003193,-0.00001254,0.00001700,0.00000946,0.
 00000539,-0.10756909,0.08768625,-0.19964273,0.08267834,-0.13322545,0.0
 0059816,-0.00078218,-0.00005639,0.00047605,0.00007341,-0.00023340,0.00
 006640,-0.00002333,-0.00007776,-0.01366275,-0.00015515,-0.00596781,-0.
 00210229,0.00168802,-0.00150013,-0.00037697,0.00006671,-0.00003744,-0.
 00097447,-0.00035780,0.00035200,-0.00009124,0.00009339,0.00006348,0.00
 004126,-0.00003801,0.00008915,0.00001209,-0.00001732,0.00007005,-0.000
 01228,-0.00000778,0.00001150,0.21566877,-0.08321831,0.14051221\\0.,-0.
 00004144,-0.00000754,0.00002045,-0.00009931,-0.00001359,0.00006871,-0.
 00002568,-0.00004023,0.00006221,0.00000609,-0.00001974,0.00000273,0.00
 002587,-0.00001213,-0.00007350,0.00009153,0.00000196,0.00003427,0.0000
 1393,-0.00000620,-0.00001101,0.00005883,0.00002537,-0.00007096,-0.0000
 2346,0.00002588,-0.00002526,0.00000376,0.00001822,-0.00000307,0.000004
 02,0.00003442,-0.00002667,0.00000061,-0.00001977,0.00002210,-0.0000147
 5,0.00001337\\\@


 GARBAGE IN, GARBAGE OUT
 Job cpu time:  0 days  1 hours 27 minutes 24.0 seconds.
 File lengths (MBytes):  RWF=   4016 Int=      0 D2E=      0 Chk=      8 Scr=      1
 Normal termination of Gaussian 03 at Tue Aug 14 19:04:48 2007.
