 Entering Gaussian System, Link 0=g03
 Initial command:
 /usr/local/g03-em64t/g03/l1.exe /usr/scratch/NQC-pW4-DFT.std.lm.2.com/Gau-24191.inp -scrdir=/usr/scratch/NQC-pW4-DFT.std.lm.2.com/
 Entering Link 1 = /usr/local/g03-em64t/g03/l1.exe PID=     24192.
  
 Copyright (c) 1988,1990,1992,1993,1995,1998,2003,2004, Gaussian, Inc.
                  All Rights Reserved.
  
 This is the Gaussian(R) 03 program.  It is based on the
 the Gaussian(R) 98 system (copyright 1998, Gaussian, Inc.),
 the Gaussian(R) 94 system (copyright 1995, Gaussian, Inc.),
 the Gaussian 92(TM) system (copyright 1992, Gaussian, Inc.),
 the Gaussian 90(TM) system (copyright 1990, Gaussian, Inc.),
 the Gaussian 88(TM) system (copyright 1988, Gaussian, Inc.),
 the Gaussian 86(TM) system (copyright 1986, Carnegie Mellon
 University), and the Gaussian 82(TM) system (copyright 1983,
 Carnegie Mellon University). Gaussian is a federally registered
 trademark of Gaussian, Inc.
  
 This software contains proprietary and confidential information,
 including trade secrets, belonging to Gaussian, Inc.
  
 This software is provided under written license and may be
 used, copied, transmitted, or stored only in accord with that
 written license.
  
 The following legend is applicable only to US Government
 contracts under FAR:
  
                    RESTRICTED RIGHTS LEGEND
  
 Use, reproduction and disclosure by the US Government is
 subject to restrictions as set forth in subparagraphs (a)
 and (c) of the Commercial Computer Software - Restricted
 Rights clause in FAR 52.227-19.
  
 Gaussian, Inc.
 340 Quinnipiac St., Bldg. 40, Wallingford CT 06492
  
  
 ---------------------------------------------------------------
 Warning -- This program may not be used in any manner that
 competes with the business of Gaussian, Inc. or will provide
 assistance to any competitor of Gaussian, Inc.  The licensee
 of this program is prohibited from giving any competitor of
 Gaussian, Inc. access to this program.  By using this program,
 the user acknowledges that Gaussian, Inc. is engaged in the
 business of creating and licensing software in the field of
 computational chemistry and represents and warrants to the
 licensee that it is not a competitor of Gaussian, Inc. and that
 it will not use this program in any manner prohibited above.
 ---------------------------------------------------------------
  

 Cite this work as:
 Gaussian 03, Revision D.01,
 M. J. Frisch, G. W. Trucks, H. B. Schlegel, G. E. Scuseria, 
 M. A. Robb, J. R. Cheeseman, J. A. Montgomery, Jr., T. Vreven, 
 K. N. Kudin, J. C. Burant, J. M. Millam, S. S. Iyengar, J. Tomasi, 
 V. Barone, B. Mennucci, M. Cossi, G. Scalmani, N. Rega, 
 G. A. Petersson, H. Nakatsuji, M. Hada, M. Ehara, K. Toyota, 
 R. Fukuda, J. Hasegawa, M. Ishida, T. Nakajima, Y. Honda, O. Kitao, 
 H. Nakai, M. Klene, X. Li, J. E. Knox, H. P. Hratchian, J. B. Cross, 
 V. Bakken, C. Adamo, J. Jaramillo, R. Gomperts, R. E. Stratmann, 
 O. Yazyev, A. J. Austin, R. Cammi, C. Pomelli, J. W. Ochterski, 
 P. Y. Ayala, K. Morokuma, G. A. Voth, P. Salvador, J. J. Dannenberg, 
 V. G. Zakrzewski, S. Dapprich, A. D. Daniels, M. C. Strain, 
 O. Farkas, D. K. Malick, A. D. Rabuck, K. Raghavachari, 
 J. B. Foresman, J. V. Ortiz, Q. Cui, A. G. Baboul, S. Clifford, 
 J. Cioslowski, B. B. Stefanov, G. Liu, A. Liashenko, P. Piskorz, 
 I. Komaromi, R. L. Martin, D. J. Fox, T. Keith, M. A. Al-Laham, 
 C. Y. Peng, A. Nanayakkara, M. Challacombe, P. M. W. Gill, 
 B. Johnson, W. Chen, M. W. Wong, C. Gonzalez, and J. A. Pople, 
 Gaussian, Inc., Wallingford CT, 2004.
 
 ******************************************
 Gaussian 03:  AM64L-G03RevD.01 13-Oct-2005
                14-Aug-2007 
 ******************************************
 %chk=pW4-DFT.std.lm.2.chk
 %mem=128MW
 %nproc=2
 Will use up to    2 processors via shared memory.
 --------------------------
 # freq opt mp2/aug-cc-pvDZ
 --------------------------
 1/18=20,38=1/1,3;
 2/9=110,17=6,18=5,40=1/2;
 3/5=16,7=10,11=9,16=1,25=1,30=1/1,2,3;
 4//1;
 5/5=2,38=5/2;
 8/6=4,10=1/1;
 9/15=2,16=-3/6;
 10/5=1/2;
 6/7=2,8=2,9=2,10=2/1;
 7/12=2/1,2,3,16;
 1/18=20/3(3);
 2/9=110/2;
 6/7=2,8=2,9=2,10=2/1;
 99//99;
 2/9=110/2;
 3/5=16,7=10,11=9,16=1,25=1,30=1/1,2,3;
 4/5=5,16=3/1;
 5/5=2,38=5/2;
 8/6=4,10=1/1;
 9/15=2,16=-3/6;
 10/5=1/2;
 7/12=2/1,2,3,16;
 1/18=20/3(-8);
 2/9=110/2;
 6/7=2,8=2,9=2,10=2/1;
 99//99;
 -------------------
 Title Card Required
 -------------------
 Symbolic Z-matrix:
 Charge =  1 Multiplicity = 1
 O                     3.1359    0.22299   0.55564 
 O                    -0.93641   0.49951  -0.8315 
 O                    -3.12219   0.22299   0.55564 
 O                     0.92269  -0.94549  -0.27978 
 H                     3.88608   0.50791   0.00867 
 H                    -0.0149   -0.16759  -0.56022 
 H                    -1.76625   0.35479  -0.26369 
 H                    -0.74234   1.45238  -0.87952 
 H                     1.09341  -1.63065  -0.94888 
 H                    -3.21669   0.02547   1.50144 
 H                    -3.96661   0.00213   0.12961 
 H                     1.79637  -0.53514   0.00794 
 H                     3.49525   0.01585   1.43403 
 

 GradGradGradGradGradGradGradGradGradGradGradGradGradGradGradGradGradGrad
 Berny optimization.
 Initialization pass.
                           ----------------------------
                           !    Initial Parameters    !
                           ! (Angstroms and Degrees)  !
 --------------------------                            --------------------------
 ! Name  Definition              Value          Derivative Info.                !
 --------------------------------------------------------------------------------
 ! R1    R(1,5)                  0.9711         estimate D2E/DX2                !
 ! R2    R(1,12)                 1.6337         estimate D2E/DX2                !
 ! R3    R(1,13)                 0.9714         estimate D2E/DX2                !
 ! R4    R(2,6)                  1.1695         estimate D2E/DX2                !
 ! R5    R(2,7)                  1.0159         estimate D2E/DX2                !
 ! R6    R(2,8)                  0.9736         estimate D2E/DX2                !
 ! R7    R(3,7)                  1.5897         estimate D2E/DX2                !
 ! R8    R(3,10)                 0.9708         estimate D2E/DX2                !
 ! R9    R(3,11)                 0.9713         estimate D2E/DX2                !
 ! R10   R(4,6)                  1.2501         estimate D2E/DX2                !
 ! R11   R(4,9)                  0.9728         estimate D2E/DX2                !
 ! R12   R(4,12)                 1.0072         estimate D2E/DX2                !
 ! A1    A(5,1,12)             125.4991         estimate D2E/DX2                !
 ! A2    A(5,1,13)             106.6247         estimate D2E/DX2                !
 ! A3    A(12,1,13)            120.498          estimate D2E/DX2                !
 ! A4    A(6,2,7)              115.6412         estimate D2E/DX2                !
 ! A5    A(6,2,8)              114.37           estimate D2E/DX2                !
 ! A6    A(7,2,8)              109.2573         estimate D2E/DX2                !
 ! A7    A(7,3,10)             127.0131         estimate D2E/DX2                !
 ! A8    A(7,3,11)             122.2992         estimate D2E/DX2                !
 ! A9    A(10,3,11)            107.2442         estimate D2E/DX2                !
 ! A10   A(6,4,9)              114.5571         estimate D2E/DX2                !
 ! A11   A(6,4,12)             117.4595         estimate D2E/DX2                !
 ! A12   A(9,4,12)             109.3423         estimate D2E/DX2                !
 ! A13   A(2,6,4)              176.2919         estimate D2E/DX2                !
 ! A14   L(2,7,3,8,-1)         176.6925         estimate D2E/DX2                !
 ! A15   L(1,12,4,6,-1)        176.1209         estimate D2E/DX2                !
 ! A16   L(2,7,3,8,-2)         174.3193         estimate D2E/DX2                !
 ! A17   L(1,12,4,6,-2)        185.5197         estimate D2E/DX2                !
 ! D1    D(5,1,4,6)            -91.2563         estimate D2E/DX2                !
 ! D2    D(5,1,4,9)             42.4472         estimate D2E/DX2                !
 ! D3    D(13,1,4,6)           120.7032         estimate D2E/DX2                !
 ! D4    D(13,1,4,9)          -105.5933         estimate D2E/DX2                !
 ! D5    D(6,2,3,10)            35.1381         estimate D2E/DX2                !
 ! D6    D(6,2,3,11)          -123.0005         estimate D2E/DX2                !
 ! D7    D(8,2,3,10)           -96.2516         estimate D2E/DX2                !
 ! D8    D(8,2,3,11)           105.6098         estimate D2E/DX2                !
 ! D9    D(7,2,6,4)             55.2785         estimate D2E/DX2                !
 ! D10   D(8,2,6,4)           -176.4739         estimate D2E/DX2                !
 ! D11   D(9,4,6,2)             54.3959         estimate D2E/DX2                !
 ! D12   D(12,4,6,2)          -175.2255         estimate D2E/DX2                !
 --------------------------------------------------------------------------------
 Trust Radius=3.00D-01 FncErr=1.00D-07 GrdErr=1.00D-07
 Number of steps in this run=  51 maximum allowed number of steps= 100.
 GradGradGradGradGradGradGradGradGradGradGradGradGradGradGradGradGradGrad

                          Input orientation:                          
 ---------------------------------------------------------------------
 Center     Atomic     Atomic              Coordinates (Angstroms)
 Number     Number      Type              X           Y           Z
 ---------------------------------------------------------------------
    1          8             0        3.135902    0.222990    0.555640
    2          8             0       -0.936408    0.499510   -0.831504
    3          8             0       -3.122190    0.222990    0.555640
    4          8             0        0.922694   -0.945490   -0.279777
    5          1             0        3.886083    0.507910    0.008667
    6          1             0       -0.014899   -0.167586   -0.560217
    7          1             0       -1.766253    0.354794   -0.263686
    8          1             0       -0.742340    1.452381   -0.879523
    9          1             0        1.093413   -1.630650   -0.948875
   10          1             0       -3.216685    0.025466    1.501440
   11          1             0       -3.966612    0.002126    0.129609
   12          1             0        1.796371   -0.535138    0.007943
   13          1             0        3.495249    0.015854    1.434032
 ---------------------------------------------------------------------
                    Distance matrix (angstroms):
                    1          2          3          4          5
     1  O    0.000000
     2  O    4.310956   0.000000
     3  O    6.258092   2.603512   0.000000
     4  O    2.638476   2.418406   4.292360   0.000000
     5  H    0.971149   4.895138   7.035357   3.313193   0.000000
     6  H    3.365298   1.169527   3.324597   1.250145   3.999698
     7  H    4.971900   1.015875   1.589727   2.986877   5.660965
     8  H    4.314146   0.973618   3.038878   2.980238   4.806579
     9  H    3.141864   2.944746   4.844673   0.972770   3.645454
    10  H    6.425645   3.296515   0.970815   4.609767   7.273956
    11  H    7.118707   3.217649   0.971253   4.997088   7.869896
    12  H    1.633730   3.040271   5.006693   1.007215   2.335561
    13  H    0.971395   5.000616   6.678696   3.237184   1.557734
                    6          7          8          9         10
     6  H    0.000000
     7  H    1.851500   0.000000
     8  H    1.804278   1.622452   0.000000
     9  H    1.876157   3.548121   3.588855   0.000000
    10  H    3.813021   2.308220   3.718529   5.227208   0.000000
    11  H    4.015059   2.262882   3.676618   5.425213   1.563603
    12  H    1.933546   3.682126   3.344082   1.615487   5.260755
    13  H    4.041264   5.539001   5.037192   3.762717   6.712279
                   11         12         13
    11  H    0.000000
    12  H    5.789251   0.000000
    13  H    7.575030   2.285500   0.000000
 Stoichiometry    H9O4(1+)
 Framework group  C1[X(H9O4)]
 Deg. of freedom    33
 Full point group                 C1
 Largest Abelian subgroup         C1      NOp   1
 Largest concise Abelian subgroup C1      NOp   1
                         Standard orientation:                         
 ---------------------------------------------------------------------
 Center     Atomic     Atomic              Coordinates (Angstroms)
 Number     Number      Type              X           Y           Z
 ---------------------------------------------------------------------
    1          8             0       -3.112431    0.606517    0.198285
    2          8             0        0.993903   -0.599056    0.716894
    3          8             0        3.133137    0.570934   -0.195837
    4          8             0       -0.959043   -0.618467   -0.709399
    5          1             0       -3.833837    0.210446    0.713874
    6          1             0        0.028893   -0.592288    0.056211
    7          1             0        1.802916   -0.131573    0.318196
    8          1             0        0.858768   -0.285395    1.628644
    9          1             0       -1.158612   -1.494581   -1.082062
   10          1             0        3.198143    1.373242   -0.738571
   11          1             0        3.970316    0.088388   -0.293874
   12          1             0       -1.811415   -0.192976   -0.382441
   13          1             0       -3.499704    1.345307   -0.299526
 ---------------------------------------------------------------------
 Rotational constants (GHZ):      9.6582623      1.1825613      1.1645128
 Standard basis: Aug-CC-pVDZ (5D, 7F)
 There are   173 symmetry adapted basis functions of A   symmetry.
 Integral buffers will be    131072 words long.
 Raffenetti 1 integral format.
 Two-electron integral symmetry is turned on.
   173 basis functions,   271 primitive gaussians,   181 cartesian basis functions
    20 alpha electrons       20 beta electrons
       nuclear repulsion energy       139.5929956968 Hartrees.
 NAtoms=   13 NActive=   13 NUniq=   13 SFac= 7.50D-01 NAtFMM=   80 NAOKFM=F Big=F
 One-electron integrals computed using PRISM.
 NBasis=   173 RedAO= T  NBF=   173
 NBsUse=   173 1.00D-06 NBFU=   173
 Harris functional with IExCor=  205 diagonalized for initial guess.
 ExpMin= 2.97D-02 ExpMax= 1.17D+04 ExpMxC= 4.01D+02 IAcc=3 IRadAn=         5 AccDes= 0.00D+00
 HarFok:  IExCor= 205 AccDes= 0.00D+00 IRadAn=         5 IDoV=1
 ScaDFX=  1.000000  1.000000  1.000000  1.000000
 Initial guess orbital symmetries:
       Occupied  (A) (A) (A) (A) (A) (A) (A) (A) (A) (A) (A) (A)
                 (A) (A) (A) (A) (A) (A) (A) (A)
       Virtual   (A) (A) (A) (A) (A) (A) (A) (A) (A) (A) (A) (A)
                 (A) (A) (A) (A) (A) (A) (A) (A) (A) (A) (A) (A)
                 (A) (A) (A) (A) (A) (A) (A) (A) (A) (A) (A) (A)
                 (A) (A) (A) (A) (A) (A) (A) (A) (A) (A) (A) (A)
                 (A) (A) (A) (A) (A) (A) (A) (A) (A) (A) (A) (A)
                 (A) (A) (A) (A) (A) (A) (A) (A) (A) (A) (A) (A)
                 (A) (A) (A) (A) (A) (A) (A) (A) (A) (A) (A) (A)
                 (A) (A) (A) (A) (A) (A) (A) (A) (A) (A) (A) (A)
                 (A) (A) (A) (A) (A) (A) (A) (A) (A) (A) (A) (A)
                 (A) (A) (A) (A) (A) (A) (A) (A) (A) (A) (A) (A)
                 (A) (A) (A) (A) (A) (A) (A) (A) (A) (A) (A) (A)
                 (A) (A) (A) (A) (A) (A) (A) (A) (A) (A) (A) (A)
                 (A) (A) (A) (A) (A) (A) (A) (A) (A)
 The electronic state of the initial guess is 1-A.
 Requested convergence on RMS density matrix=1.00D-08 within 128 cycles.
 Requested convergence on MAX density matrix=1.00D-06.
 Requested convergence on             energy=1.00D-06.
 No special actions if energy rises.
 SCF Done:  E(RHF) =  -304.538165242     A.U. after   11 cycles
             Convg  =    0.3898D-08             -V/T =  2.0020
             S**2   =   0.0000
 ExpMin= 2.97D-02 ExpMax= 1.17D+04 ExpMxC= 4.01D+02 IAcc=3 IRadAn=         5 AccDes= 0.00D+00
 HarFok:  IExCor= 205 AccDes= 0.00D+00 IRadAn=         5 IDoV=1
 ScaDFX=  1.000000  1.000000  1.000000  1.000000
 Range of M.O.s used for correlation:     5   173
 NBasis=   173 NAE=    20 NBE=    20 NFC=     4 NFV=     0
 NROrb=    169 NOA=    16 NOB=    16 NVA=   153 NVB=   153
 Fully direct method using O(ONN) memory.
 JobTyp=1 Pass  1:  I=   5 to  20 NPSUse=  2 ParTrn=T ParDer=T DoDerP=T.
 Spin components of T(2) and E(2):
     alpha-alpha T2 =       0.3097657860D-01 E2=     -0.1147937442D+00
     alpha-beta  T2 =       0.1723827457D+00 E2=     -0.6623122160D+00
     beta-beta   T2 =       0.3097657860D-01 E2=     -0.1147937442D+00
 ANorm=    0.1111006707D+01
 E2 =    -0.8918997043D+00 EUMP2 =    -0.30543006494626D+03
 DoAtom=TTTTTTTTTTTTT
          Differentiating once with respect to electric field.
                with respect to dipole field.
          Differentiating once with respect to nuclear coordinates.
          There are   1 degrees of freedom in the 1st order CPHF.
 Petite list used in FoFDir.
 MinBra= 0 MaxBra= 2 Meth= 1.
 IRaf=       0 NMat=   1 IRICut=       1 DoRegI=T DoRafI=F ISym2E= 1 JSym2E=1.
     1 vectors were produced by pass  0.
 AX will form   1 AO Fock derivatives at one time.
     1 vectors were produced by pass  1.
     1 vectors were produced by pass  2.
     1 vectors were produced by pass  3.
     1 vectors were produced by pass  4.
     1 vectors were produced by pass  5.
     1 vectors were produced by pass  6.
     1 vectors were produced by pass  7.
     1 vectors were produced by pass  8.
     1 vectors were produced by pass  9.
     1 vectors were produced by pass 10.
     1 vectors were produced by pass 11.
     1 vectors were produced by pass 12.
 Inv2:  IOpt= 1 Iter= 1 AM= 5.45D-16 Conv= 1.00D-12.
 Inverted reduced A of dimension   13 with in-core refinement.
 End of Minotr Frequency-dependent properties file   721 does not exist.

 **********************************************************************

            Population analysis using the SCF density.

 **********************************************************************

 Orbital symmetries:
       Occupied  (A) (A) (A) (A) (A) (A) (A) (A) (A) (A) (A) (A)
                 (A) (A) (A) (A) (A) (A) (A) (A)
       Virtual   (A) (A) (A) (A) (A) (A) (A) (A) (A) (A) (A) (A)
                 (A) (A) (A) (A) (A) (A) (A) (A) (A) (A) (A) (A)
                 (A) (A) (A) (A) (A) (A) (A) (A) (A) (A) (A) (A)
                 (A) (A) (A) (A) (A) (A) (A) (A) (A) (A) (A) (A)
                 (A) (A) (A) (A) (A) (A) (A) (A) (A) (A) (A) (A)
                 (A) (A) (A) (A) (A) (A) (A) (A) (A) (A) (A) (A)
                 (A) (A) (A) (A) (A) (A) (A) (A) (A) (A) (A) (A)
                 (A) (A) (A) (A) (A) (A) (A) (A) (A) (A) (A) (A)
                 (A) (A) (A) (A) (A) (A) (A) (A) (A) (A) (A) (A)
                 (A) (A) (A) (A) (A) (A) (A) (A) (A) (A) (A) (A)
                 (A) (A) (A) (A) (A) (A) (A) (A) (A) (A) (A) (A)
                 (A) (A) (A) (A) (A) (A) (A) (A) (A) (A) (A) (A)
                 (A) (A) (A) (A) (A) (A) (A) (A) (A)
 The electronic state is 1-A.
 Alpha  occ. eigenvalues --  -20.79968 -20.78218 -20.75521 -20.75151  -1.59723
 Alpha  occ. eigenvalues --   -1.55966  -1.52964  -1.52456  -0.96573  -0.94801
 Alpha  occ. eigenvalues --   -0.93234  -0.89536  -0.88977  -0.81358  -0.77142
 Alpha  occ. eigenvalues --   -0.74933  -0.73894  -0.71737  -0.69089  -0.68526
 Alpha virt. eigenvalues --   -0.09214  -0.07190  -0.06029  -0.05801  -0.04510
 Alpha virt. eigenvalues --   -0.03726  -0.01969  -0.01108  -0.00841   0.04396
 Alpha virt. eigenvalues --    0.04910   0.05510   0.07159   0.07904   0.08084
 Alpha virt. eigenvalues --    0.08825   0.09222   0.10710   0.11110   0.12536
 Alpha virt. eigenvalues --    0.12735   0.13597   0.14364   0.14956   0.15747
 Alpha virt. eigenvalues --    0.17066   0.17749   0.19217   0.19970   0.21577
 Alpha virt. eigenvalues --    0.21886   0.24139   0.25330   0.28198   0.29028
 Alpha virt. eigenvalues --    0.30098   0.32381   0.33953   0.35250   0.35728
 Alpha virt. eigenvalues --    0.36103   0.38396   0.40092   0.41127   0.41194
 Alpha virt. eigenvalues --    0.42376   0.43163   0.43765   0.44715   0.46453
 Alpha virt. eigenvalues --    0.48167   0.49002   0.50044   0.51213   0.53020
 Alpha virt. eigenvalues --    0.53168   0.53433   0.53974   0.65137   0.66813
 Alpha virt. eigenvalues --    0.69543   0.70367   0.72373   0.74631   0.76961
 Alpha virt. eigenvalues --    0.78425   0.80537   0.81062   0.82438   0.84660
 Alpha virt. eigenvalues --    0.97894   0.98498   0.99614   1.01554   1.04078
 Alpha virt. eigenvalues --    1.05776   1.10544   1.11810   1.13123   1.14797
 Alpha virt. eigenvalues --    1.20194   1.21572   1.25037   1.26506   1.29059
 Alpha virt. eigenvalues --    1.32573   1.34860   1.36694   1.38899   1.40415
 Alpha virt. eigenvalues --    1.46375   1.47582   1.51423   1.55413   1.73334
 Alpha virt. eigenvalues --    1.77729   1.79051   1.80025   1.84698   1.85183
 Alpha virt. eigenvalues --    1.87658   1.87872   1.90622   1.91463   1.97893
 Alpha virt. eigenvalues --    1.98225   2.06292   2.07336   2.12043   2.23091
 Alpha virt. eigenvalues --    2.30813   2.30889   2.31705   2.33732   2.36343
 Alpha virt. eigenvalues --    2.36704   2.40757   2.44071   2.46198   2.48374
 Alpha virt. eigenvalues --    2.56990   2.61187   2.64608   2.66127   2.71714
 Alpha virt. eigenvalues --    2.74474   2.75907   2.81446   2.82615   2.90642
 Alpha virt. eigenvalues --    2.93818   2.98535   3.01344   3.50085   3.52608
 Alpha virt. eigenvalues --    3.52851   3.53510   3.54304   3.56969   3.58362
 Alpha virt. eigenvalues --    3.60531   3.61581   3.61949   3.64516   3.91046
 Alpha virt. eigenvalues --    3.91304   3.95497   3.98454   4.14509   4.14772
 Alpha virt. eigenvalues --    4.22450   4.23302   4.39753
          Condensed to atoms (all electrons):
              1          2          3          4          5          6
     1  O    7.866027   0.001850   0.000141  -0.036203   0.358077  -0.002247
     2  O    0.001850   7.890995  -0.043503  -0.065583   0.000109   0.078712
     3  O    0.000141  -0.043503   7.888819   0.001731   0.000014  -0.007154
     4  O   -0.036203  -0.065583   0.001731   7.979200  -0.001568   0.015768
     5  H    0.358077   0.000109   0.000014  -0.001568   0.463990   0.001217
     6  H   -0.002247   0.078712  -0.007154   0.015768   0.001217   0.197560
     7  H    0.000170   0.292047  -0.061868  -0.004249  -0.000147  -0.013315
     8  H   -0.000336   0.360853  -0.000262  -0.008463   0.000014  -0.001281
     9  H   -0.008668   0.001111   0.000606   0.370480  -0.000014  -0.013013
    10  H    0.000091   0.000650   0.359411   0.000227   0.000002  -0.001093
    11  H   -0.000021   0.000193   0.369294  -0.000238   0.000002   0.001024
    12  H   -0.050985  -0.015607  -0.001106   0.301911   0.000118  -0.007638
    13  H    0.366927   0.000216   0.000036   0.000810  -0.043364   0.000470
              7          8          9         10         11         12
     1  O    0.000170  -0.000336  -0.008668   0.000091  -0.000021  -0.050985
     2  O    0.292047   0.360853   0.001111   0.000650   0.000193  -0.015607
     3  O   -0.061868  -0.000262   0.000606   0.359411   0.369294  -0.001106
     4  O   -0.004249  -0.008463   0.370480   0.000227  -0.000238   0.301911
     5  H   -0.000147   0.000014  -0.000014   0.000002   0.000002   0.000118
     6  H   -0.013315  -0.001281  -0.013013  -0.001093   0.001024  -0.007638
     7  H    0.317121  -0.035457   0.001759   0.002443  -0.002682   0.001470
     8  H   -0.035457   0.440544  -0.001229  -0.000240  -0.000212   0.000156
     9  H    0.001759  -0.001229   0.462185  -0.000049  -0.000078  -0.037233
    10  H    0.002443  -0.000240  -0.000049   0.458558  -0.042536   0.000041
    11  H   -0.002682  -0.000212  -0.000078  -0.042536   0.466138  -0.000109
    12  H    0.001470   0.000156  -0.037233   0.000041  -0.000109   0.339042
    13  H   -0.000111   0.000066  -0.000953   0.000004  -0.000001  -0.001987
             13
     1  O    0.366927
     2  O    0.000216
     3  O    0.000036
     4  O    0.000810
     5  H   -0.043364
     6  H    0.000470
     7  H   -0.000111
     8  H    0.000066
     9  H   -0.000953
    10  H    0.000004
    11  H   -0.000001
    12  H   -0.001987
    13  H    0.470982
 Mulliken atomic charges:
              1
     1  O   -0.494823
     2  O   -0.502043
     3  O   -0.506160
     4  O   -0.553822
     5  H    0.221550
     6  H    0.750991
     7  H    0.502821
     8  H    0.245848
     9  H    0.225095
    10  H    0.222489
    11  H    0.209224
    12  H    0.471926
    13  H    0.206906
 Sum of Mulliken charges=   1.00000
 Atomic charges with hydrogens summed into heavy atoms:
              1
     1  O   -0.066368
     2  O    0.997617
     3  O   -0.074447
     4  O    0.143199
     5  H    0.000000
     6  H    0.000000
     7  H    0.000000
     8  H    0.000000
     9  H    0.000000
    10  H    0.000000
    11  H    0.000000
    12  H    0.000000
    13  H    0.000000
 Sum of Mulliken charges=   1.00000
 Electronic spatial extent (au):  <R**2>=   957.8620
 Charge=     1.0000 electrons
 Dipole moment (field-independent basis, Debye):
    X=    -0.5813    Y=     0.1954    Z=    -0.0056  Tot=     0.6133
 Quadrupole moment (field-independent basis, Debye-Ang):
   XX=    21.6601   YY=   -18.2256   ZZ=   -19.6382
   XY=     1.6146   XZ=    -2.7645   YZ=    -0.7684
 Traceless Quadrupole moment (field-independent basis, Debye-Ang):
   XX=    27.0614   YY=   -12.8244   ZZ=   -14.2370
   XY=     1.6146   XZ=    -2.7645   YZ=    -0.7684
 Octapole moment (field-independent basis, Debye-Ang**2):
  XXX=    -7.1461  YYY=     3.2133  ZZZ=     8.1044  XYY=    -5.9659
  XXY=    25.1595  XXZ=   -10.8868  XZZ=     0.8019  YZZ=    -2.2515
  YYZ=   -10.8396  XYZ=    -4.6270
 Hexadecapole moment (field-independent basis, Debye-Ang**3):
 XXXX=  -101.6249 YYYY=   -59.9921 ZZZZ=   -51.7503 XXXY=   -39.1448
 XXXZ=   -99.2974 YYYX=    10.0509 YYYZ=     1.5067 ZZZX=     4.0375
 ZZZY=    -0.2288 XXYY=  -100.1376 XXZZ=  -134.2428 YYZZ=   -18.0642
 XXYZ=   -31.3077 YYXZ=     0.8763 ZZXY=     7.7899
 N-N= 1.395929956968D+02 E-N=-9.940089326803D+02  KE= 3.039419368350D+02
 ***** Axes restored to original set *****
 -------------------------------------------------------------------
 Center     Atomic                   Forces (Hartrees/Bohr)
 Number     Number              X              Y              Z
 -------------------------------------------------------------------
    1          8           0.000213261   -0.000525960    0.000521778
    2          8          -0.001048016   -0.000606785    0.003483905
    3          8          -0.000294358   -0.000700546   -0.000369321
    4          8           0.001602677    0.001675890   -0.001003799
    5          1          -0.002104457   -0.001624063    0.003811355
    6          1          -0.000501265    0.000831103   -0.000370644
    7          1           0.003755625    0.002373926   -0.001879856
    8          1          -0.001566920   -0.004066897    0.000701779
    9          1           0.000702704    0.003134587    0.003078226
   10          1          -0.001256701    0.000285329   -0.004527373
   11          1           0.002987256    0.000379646    0.003630765
   12          1          -0.002910045   -0.002525291   -0.002609209
   13          1           0.000420239    0.001369059   -0.004467607
 -------------------------------------------------------------------
 Cartesian Forces:  Max     0.004527373 RMS     0.002233759

 GradGradGradGradGradGradGradGradGradGradGradGradGradGradGradGradGradGrad
 Berny optimization.
 Internal  Forces:  Max     0.006337056 RMS     0.002393171
 Search for a local minimum.
 Step number   1 out of a maximum of  51
 All quantities printed in internal units (Hartrees-Bohrs-Radians)
 Second derivative matrix not updated -- first step.
     Eigenvalues ---    0.00230   0.00230   0.00230   0.00230   0.00666
     Eigenvalues ---    0.01178   0.02309   0.02564   0.08473   0.09295
     Eigenvalues ---    0.13793   0.13934   0.16000   0.16000   0.16000
     Eigenvalues ---    0.16000   0.16000   0.16000   0.21339   0.24225
     Eigenvalues ---    0.24238   0.24889   0.24959   0.25000   0.27030
     Eigenvalues ---    0.45002   0.46441   0.52644   0.52815   0.53093
     Eigenvalues ---    0.53122   0.53143   0.532111000.000001000.00000
     Eigenvalues --- 1000.000001000.000001000.000001000.000001000.00000
     Eigenvalues --- 1000.00000
 RFO step:  Lambda=-7.68813166D-04.
 Linear search not attempted -- first point.
 Iteration  1 RMS(Cart)=  0.07764695 RMS(Int)=  0.00133327
 Iteration  2 RMS(Cart)=  0.00201054 RMS(Int)=  0.00010554
 Iteration  3 RMS(Cart)=  0.00000181 RMS(Int)=  0.00010554
 Iteration  4 RMS(Cart)=  0.00000000 RMS(Int)=  0.00010554
 Variable       Old X    -DE/DX   Delta X   Delta X   Delta X     New X
                                 (Linear)    (Quad)   (Total)
    R1        1.83521  -0.00425   0.00000  -0.00798  -0.00798   1.82722
    R2        3.08730  -0.00162   0.00000  -0.01889  -0.01888   3.06842
    R3        1.83567  -0.00418   0.00000  -0.00785  -0.00785   1.82782
    R4        2.21009  -0.00360   0.00000  -0.01329  -0.01329   2.19679
    R5        1.91973  -0.00634   0.00000  -0.01406  -0.01407   1.90566
    R6        1.83987  -0.00432   0.00000  -0.00819  -0.00819   1.83168
    R7        3.00415  -0.00188   0.00000  -0.02001  -0.02001   2.98414
    R8        1.83458  -0.00435   0.00000  -0.00816  -0.00816   1.82642
    R9        1.83540  -0.00428   0.00000  -0.00804  -0.00804   1.82736
   R10        2.36243  -0.00264   0.00000  -0.01230  -0.01230   2.35013
   R11        1.83827  -0.00420   0.00000  -0.00794  -0.00794   1.83032
   R12        1.90336  -0.00593   0.00000  -0.01277  -0.01277   1.89059
    A1        2.19037   0.00086   0.00000  -0.00137  -0.00161   2.18877
    A2        1.86095  -0.00233   0.00000  -0.02217  -0.02245   1.83850
    A3        2.10309   0.00139   0.00000   0.00179   0.00155   2.10463
    A4        2.01832   0.00074   0.00000   0.00292   0.00291   2.02123
    A5        1.99613   0.00029   0.00000   0.00051   0.00049   1.99663
    A6        1.90690  -0.00123   0.00000  -0.01051  -0.01051   1.89639
    A7        2.21680   0.00098   0.00000   0.00100   0.00073   2.21753
    A8        2.13452   0.00133   0.00000   0.00315   0.00288   2.13740
    A9        1.87176  -0.00224   0.00000  -0.01931  -0.01960   1.85216
   A10        1.99940   0.00070   0.00000   0.00316   0.00314   2.00254
   A11        2.05005   0.00075   0.00000   0.00289   0.00289   2.05294
   A12        1.90838  -0.00166   0.00000  -0.01355  -0.01355   1.89483
   A13        3.07687  -0.00055   0.00000  -0.00217  -0.00217   3.07470
   A14        3.08387   0.00041   0.00000   0.00228   0.00232   3.08619
   A15        3.07389  -0.00034   0.00000  -0.00026  -0.00020   3.07369
   A16        3.04245  -0.00039   0.00000  -0.00168  -0.00168   3.04076
   A17        3.23793   0.00049   0.00000   0.00213   0.00211   3.24004
    D1       -1.59272  -0.00041   0.00000  -0.01632  -0.01627  -1.60900
    D2        0.74084  -0.00021   0.00000  -0.02224  -0.02217   0.71867
    D3        2.10667   0.00026   0.00000   0.03660   0.03652   2.14319
    D4       -1.84295   0.00046   0.00000   0.03067   0.03062  -1.81233
    D5        0.61328  -0.00014   0.00000  -0.02537  -0.02532   0.58796
    D6       -2.14676   0.00027   0.00000   0.02995   0.02991  -2.11686
    D7       -1.67991  -0.00024   0.00000  -0.01937  -0.01933  -1.69924
    D8        1.84324   0.00018   0.00000   0.03595   0.03590   1.87914
    D9        0.96479   0.00056   0.00000   0.05709   0.05709   1.02189
   D10       -3.08005  -0.00025   0.00000   0.04499   0.04499  -3.03507
   D11        0.94939   0.00067   0.00000   0.05973   0.05974   1.00913
   D12       -3.05826  -0.00035   0.00000   0.04533   0.04532  -3.01294
         Item               Value     Threshold  Converged?
 Maximum Force            0.006337     0.000450     NO 
 RMS     Force            0.002393     0.000300     NO 
 Maximum Displacement     0.149865     0.001800     NO 
 RMS     Displacement     0.077259     0.001200     NO 
 Predicted change in Energy=-3.904675D-04
 GradGradGradGradGradGradGradGradGradGradGradGradGradGradGradGradGradGrad

                          Input orientation:                          
 ---------------------------------------------------------------------
 Center     Atomic     Atomic              Coordinates (Angstroms)
 Number     Number      Type              X           Y           Z
 ---------------------------------------------------------------------
    1          8             0        3.075027    0.227782    0.601314
    2          8             0       -0.947263    0.463975   -0.870809
    3          8             0       -3.072131    0.252200    0.586937
    4          8             0        0.922755   -0.946739   -0.326851
    5          1             0        3.834581    0.534595    0.087615
    6          1             0       -0.020664   -0.185064   -0.603325
    7          1             0       -1.751981    0.347276   -0.274364
    8          1             0       -0.760895    1.411146   -0.958249
    9          1             0        1.135757   -1.594391   -1.014817
   10          1             0       -3.137380    0.079618    1.535662
   11          1             0       -3.921854   -0.010239    0.207221
   12          1             0        1.774498   -0.532301   -0.004836
   13          1             0        3.433874   -0.022701    1.463890
 ---------------------------------------------------------------------
                    Distance matrix (angstroms):
                    1          2          3          4          5
     1  O    0.000000
     2  O    4.289727   0.000000
     3  O    6.147224   2.585524   0.000000
     4  O    2.621691   2.404782   4.269846   0.000000
     5  H    0.966924   4.877459   6.930494   3.293154   0.000000
     6  H    3.347372   1.162492   3.304448   1.243634   3.982238
     7  H    4.907250   1.008432   1.579138   2.971775   5.601410
     8  H    4.306610   0.969284   3.012070   2.965294   4.793806
     9  H    3.113352   2.931993   4.866399   0.968566   3.609929
    10  H    6.284024   3.276498   0.966499   4.583346   7.135271
    11  H    7.012012   3.199253   0.966999   4.963115   7.776467
    12  H    1.623737   3.024973   4.945245   1.000459   2.321801
    13  H    0.967238   4.988190   6.570595   3.219676   1.537946
                    6          7          8          9         10
     6  H    0.000000
     7  H    1.840940   0.000000
     8  H    1.794937   1.606789   0.000000
     9  H    1.868913   3.557720   3.554398   0.000000
    10  H    3.789359   2.295030   3.693269   5.250424   0.000000
    11  H    3.988338   2.251242   3.656545   5.438966   1.545389
    12  H    1.923894   3.644496   3.333797   1.598776   5.184026
    13  H    4.029090   5.481925   5.051610   3.727672   6.572442
                   11         12         13
    11  H    0.000000
    12  H    5.724155   0.000000
    13  H    7.462312   2.273846   0.000000
 Stoichiometry    H9O4(1+)
 Framework group  C1[X(H9O4)]
 Deg. of freedom    33
 Full point group                 C1
 Largest Abelian subgroup         C1      NOp   1
 Largest concise Abelian subgroup C1      NOp   1
                         Standard orientation:                         
 ---------------------------------------------------------------------
 Center     Atomic     Atomic              Coordinates (Angstroms)
 Number     Number      Type              X           Y           Z
 ---------------------------------------------------------------------
    1          8             0       -3.055122    0.644677    0.217657
    2          8             0        1.003180   -0.668881    0.672083
    3          8             0        3.079648    0.619402   -0.172633
    4          8             0       -0.965243   -0.638675   -0.708993
    5          1             0       -3.782509    0.270806    0.733478
    6          1             0        0.031109   -0.638602    0.035257
    7          1             0        1.786292   -0.151924    0.302723
    8          1             0        0.880568   -0.423686    1.601792
    9          1             0       -1.205811   -1.507089   -1.064105
   10          1             0        3.114197    1.450182   -0.665312
   11          1             0        3.918085    0.169684   -0.345443
   12          1             0       -1.794644   -0.190689   -0.373848
   13          1             0       -3.446990    1.369122   -0.289462
 ---------------------------------------------------------------------
 Rotational constants (GHZ):      9.1616083      1.2207626      1.1867124
 Standard basis: Aug-CC-pVDZ (5D, 7F)
 There are   173 symmetry adapted basis functions of A   symmetry.
 Integral buffers will be    131072 words long.
 Raffenetti 1 integral format.
 Two-electron integral symmetry is turned on.
   173 basis functions,   271 primitive gaussians,   181 cartesian basis functions
    20 alpha electrons       20 beta electrons
       nuclear repulsion energy       140.4915926941 Hartrees.
 NAtoms=   13 NActive=   13 NUniq=   13 SFac= 7.50D-01 NAtFMM=   80 NAOKFM=F Big=F
 One-electron integrals computed using PRISM.
 NBasis=   173 RedAO= T  NBF=   173
 NBsUse=   173 1.00D-06 NBFU=   173
 Initial guess read from the read-write file:
 Initial guess orbital symmetries:
       Occupied  (A) (A) (A) (A) (A) (A) (A) (A) (A) (A) (A) (A)
                 (A) (A) (A) (A) (A) (A) (A) (A)
       Virtual   (A) (A) (A) (A) (A) (A) (A) (A) (A) (A) (A) (A)
                 (A) (A) (A) (A) (A) (A) (A) (A) (A) (A) (A) (A)
                 (A) (A) (A) (A) (A) (A) (A) (A) (A) (A) (A) (A)
                 (A) (A) (A) (A) (A) (A) (A) (A) (A) (A) (A) (A)
                 (A) (A) (A) (A) (A) (A) (A) (A) (A) (A) (A) (A)
                 (A) (A) (A) (A) (A) (A) (A) (A) (A) (A) (A) (A)
                 (A) (A) (A) (A) (A) (A) (A) (A) (A) (A) (A) (A)
                 (A) (A) (A) (A) (A) (A) (A) (A) (A) (A) (A) (A)
                 (A) (A) (A) (A) (A) (A) (A) (A) (A) (A) (A) (A)
                 (A) (A) (A) (A) (A) (A) (A) (A) (A) (A) (A) (A)
                 (A) (A) (A) (A) (A) (A) (A) (A) (A) (A) (A) (A)
                 (A) (A) (A) (A) (A) (A) (A) (A) (A) (A) (A) (A)
                 (A) (A) (A) (A) (A) (A) (A) (A) (A)
 Harris functional with IExCor=  205 diagonalized for initial guess.
 ExpMin= 2.97D-02 ExpMax= 1.17D+04 ExpMxC= 4.01D+02 IAcc=3 IRadAn=         5 AccDes= 0.00D+00
 HarFok:  IExCor= 205 AccDes= 0.00D+00 IRadAn=         5 IDoV=1
 ScaDFX=  1.000000  1.000000  1.000000  1.000000
 Requested convergence on RMS density matrix=1.00D-08 within 128 cycles.
 Requested convergence on MAX density matrix=1.00D-06.
 Requested convergence on             energy=1.00D-06.
 No special actions if energy rises.
 SCF Done:  E(RHF) =  -304.540029267     A.U. after   10 cycles
             Convg  =    0.3345D-08             -V/T =  2.0016
             S**2   =   0.0000
 ExpMin= 2.97D-02 ExpMax= 1.17D+04 ExpMxC= 4.01D+02 IAcc=3 IRadAn=         5 AccDes= 0.00D+00
 HarFok:  IExCor= 205 AccDes= 0.00D+00 IRadAn=         5 IDoV=1
 ScaDFX=  1.000000  1.000000  1.000000  1.000000
 Range of M.O.s used for correlation:     5   173
 NBasis=   173 NAE=    20 NBE=    20 NFC=     4 NFV=     0
 NROrb=    169 NOA=    16 NOB=    16 NVA=   153 NVB=   153
 Fully direct method using O(ONN) memory.
 JobTyp=1 Pass  1:  I=   5 to  20 NPSUse=  2 ParTrn=T ParDer=T DoDerP=T.
 Spin components of T(2) and E(2):
     alpha-alpha T2 =       0.3081725597D-01 E2=     -0.1146459645D+00
     alpha-beta  T2 =       0.1713251790D+00 E2=     -0.6611402254D+00
     beta-beta   T2 =       0.3081725597D-01 E2=     -0.1146459645D+00
 ANorm=    0.1110387181D+01
 E2 =    -0.8904321543D+00 EUMP2 =    -0.30543046142154D+03
 DoAtom=TTTTTTTTTTTTT
          Differentiating once with respect to electric field.
                with respect to dipole field.
          Differentiating once with respect to nuclear coordinates.
          There are   1 degrees of freedom in the 1st order CPHF.
 Petite list used in FoFDir.
 MinBra= 0 MaxBra= 2 Meth= 1.
 IRaf=       0 NMat=   1 IRICut=       1 DoRegI=T DoRafI=F ISym2E= 1 JSym2E=1.
     1 vectors were produced by pass  0.
 AX will form   1 AO Fock derivatives at one time.
     1 vectors were produced by pass  1.
     1 vectors were produced by pass  2.
     1 vectors were produced by pass  3.
     1 vectors were produced by pass  4.
     1 vectors were produced by pass  5.
     1 vectors were produced by pass  6.
     1 vectors were produced by pass  7.
     1 vectors were produced by pass  8.
     1 vectors were produced by pass  9.
     1 vectors were produced by pass 10.
     1 vectors were produced by pass 11.
     1 vectors were produced by pass 12.
 Inv2:  IOpt= 1 Iter= 1 AM= 4.29D-16 Conv= 1.00D-12.
 Inverted reduced A of dimension   13 with in-core refinement.
 End of Minotr Frequency-dependent properties file   721 does not exist.
 ***** Axes restored to original set *****
 -------------------------------------------------------------------
 Center     Atomic                   Forces (Hartrees/Bohr)
 Number     Number              X              Y              Z
 -------------------------------------------------------------------
    1          8          -0.001017112   -0.000325030    0.000127742
    2          8           0.000206906   -0.000849359    0.000376572
    3          8           0.000707845    0.000162652   -0.000867764
    4          8          -0.000573241    0.000233386   -0.000032480
    5          1           0.000390177    0.000160324   -0.000359727
    6          1          -0.000100219    0.000643659   -0.000305170
    7          1          -0.000253182    0.000505713    0.000594936
    8          1          -0.000100826    0.000034921   -0.000115219
    9          1           0.000264184   -0.000240165    0.000158879
   10          1          -0.000109024   -0.000124504    0.000401165
   11          1          -0.000442005   -0.000159255    0.000016326
   12          1           0.000734186    0.000028345   -0.000452369
   13          1           0.000292313   -0.000070686    0.000457110
 -------------------------------------------------------------------
 Cartesian Forces:  Max     0.001017112 RMS     0.000419289

 GradGradGradGradGradGradGradGradGradGradGradGradGradGradGradGradGradGrad
 Berny optimization.
 Internal  Forces:  Max     0.000694364 RMS     0.000276181
 Search for a local minimum.
 Step number   2 out of a maximum of  51
 All quantities printed in internal units (Hartrees-Bohrs-Radians)
 Update second derivatives using D2CorX and points  1  2
 Trust test= 1.02D+00 RLast= 1.42D-01 DXMaxT set to 4.24D-01
     Eigenvalues ---    0.00229   0.00230   0.00230   0.00231   0.00770
     Eigenvalues ---    0.01325   0.02387   0.02637   0.08315   0.09135
     Eigenvalues ---    0.13615   0.13815   0.15480   0.16000   0.16000
     Eigenvalues ---    0.16000   0.16000   0.16185   0.21456   0.24148
     Eigenvalues ---    0.24254   0.24807   0.24941   0.24950   0.26838
     Eigenvalues ---    0.45147   0.46690   0.52563   0.52789   0.53104
     Eigenvalues ---    0.53130   0.53190   0.562131000.000001000.00000
     Eigenvalues --- 1000.000001000.000001000.000001000.000001000.00000
     Eigenvalues --- 1000.00000
 RFO step:  Lambda=-2.59869245D-05.
 Quartic linear search produced a step of  0.02162.
 Iteration  1 RMS(Cart)=  0.02387651 RMS(Int)=  0.00017457
 Iteration  2 RMS(Cart)=  0.00022738 RMS(Int)=  0.00001058
 Iteration  3 RMS(Cart)=  0.00000003 RMS(Int)=  0.00001058
 Variable       Old X    -DE/DX   Delta X   Delta X   Delta X     New X
                                 (Linear)    (Quad)   (Total)
    R1        1.82722   0.00055  -0.00017   0.00098   0.00081   1.82803
    R2        3.06842  -0.00029  -0.00041  -0.00371  -0.00412   3.06430
    R3        1.82782   0.00053  -0.00017   0.00096   0.00079   1.82860
    R4        2.19679  -0.00034  -0.00029  -0.00141  -0.00170   2.19509
    R5        1.90566   0.00011  -0.00030   0.00012  -0.00019   1.90547
    R6        1.83168   0.00003  -0.00018  -0.00001  -0.00018   1.83150
    R7        2.98414  -0.00037  -0.00043  -0.00424  -0.00467   2.97947
    R8        1.82642   0.00042  -0.00018   0.00074   0.00056   1.82698
    R9        1.82736   0.00043  -0.00017   0.00074   0.00057   1.82793
   R10        2.35013   0.00018  -0.00027   0.00077   0.00051   2.35063
   R11        1.83032   0.00011  -0.00017   0.00013  -0.00004   1.83028
   R12        1.89059   0.00018  -0.00028   0.00026  -0.00001   1.89058
    A1        2.18877  -0.00017  -0.00003  -0.00100  -0.00104   2.18773
    A2        1.83850  -0.00003  -0.00049  -0.00026  -0.00075   1.83775
    A3        2.10463   0.00019   0.00003   0.00132   0.00135   2.10598
    A4        2.02123   0.00048   0.00006   0.00498   0.00503   2.02626
    A5        1.99663  -0.00006   0.00001   0.00258   0.00257   1.99919
    A6        1.89639  -0.00018  -0.00023   0.00100   0.00076   1.89715
    A7        2.21753   0.00000   0.00002  -0.00052  -0.00052   2.21701
    A8        2.13740   0.00020   0.00006   0.00079   0.00084   2.13824
    A9        1.85216  -0.00015  -0.00042  -0.00174  -0.00218   1.84999
   A10        2.00254   0.00015   0.00007   0.00460   0.00464   2.00718
   A11        2.05294   0.00038   0.00006   0.00492   0.00495   2.05789
   A12        1.89483  -0.00030  -0.00029   0.00060   0.00027   1.89510
   A13        3.07470  -0.00069  -0.00005  -0.00286  -0.00290   3.07180
   A14        3.08619   0.00031   0.00005   0.00161   0.00166   3.08785
   A15        3.07369  -0.00001   0.00000   0.00018   0.00017   3.07386
   A16        3.04076  -0.00034  -0.00004  -0.00171  -0.00175   3.03902
   A17        3.24004   0.00037   0.00005   0.00196   0.00200   3.24205
    D1       -1.60900  -0.00018  -0.00035  -0.00055  -0.00090  -1.60990
    D2        0.71867   0.00021  -0.00048   0.01235   0.01188   0.73055
    D3        2.14319  -0.00018   0.00079  -0.00066   0.00013   2.14332
    D4       -1.81233   0.00020   0.00066   0.01224   0.01291  -1.79942
    D5        0.58796   0.00014  -0.00055   0.00451   0.00397   0.59192
    D6       -2.11686   0.00018   0.00065   0.01016   0.01081  -2.10604
    D7       -1.69924  -0.00017  -0.00042  -0.00533  -0.00575  -1.70499
    D8        1.87914  -0.00013   0.00078   0.00033   0.00109   1.88023
    D9        1.02189  -0.00003   0.00123   0.01020   0.01143   1.03331
   D10       -3.03507   0.00010   0.00097   0.01884   0.01981  -3.01525
   D11        1.00913   0.00000   0.00129   0.01150   0.01277   1.02190
   D12       -3.01294   0.00008   0.00098   0.02235   0.02334  -2.98960
         Item               Value     Threshold  Converged?
 Maximum Force            0.000694     0.000450     NO 
 RMS     Force            0.000276     0.000300     YES
 Maximum Displacement     0.062646     0.001800     NO 
 RMS     Displacement     0.023838     0.001200     NO 
 Predicted change in Energy=-1.336201D-05
 GradGradGradGradGradGradGradGradGradGradGradGradGradGradGradGradGradGrad

                          Input orientation:                          
 ---------------------------------------------------------------------
 Center     Atomic     Atomic              Coordinates (Angstroms)
 Number     Number      Type              X           Y           Z
 ---------------------------------------------------------------------
    1          8             0        3.065256    0.224716    0.616859
    2          8             0       -0.953973    0.454550   -0.881090
    3          8             0       -3.063017    0.258606    0.597190
    4          8             0        0.927070   -0.943273   -0.345235
    5          1             0        3.827330    0.542910    0.113107
    6          1             0       -0.021671   -0.186361   -0.617756
    7          1             0       -1.752522    0.345814   -0.275093
    8          1             0       -0.774155    1.400500   -0.991399
    9          1             0        1.148381   -1.586776   -1.034440
   10          1             0       -3.119115    0.101672    1.549514
   11          1             0       -3.913994   -0.019188    0.230668
   12          1             0        1.774636   -0.530073   -0.010869
   13          1             0        3.420100   -0.037941    1.477935
 ---------------------------------------------------------------------
                    Distance matrix (angstroms):
                    1          2          3          4          5
     1  O    0.000000
     2  O    4.295448   0.000000
     3  O    6.128398   2.582977   0.000000
     4  O    2.619477   2.404033   4.272408   0.000000
     5  H    0.967352   4.884372   6.913179   3.290946   0.000000
     6  H    3.349981   1.161593   3.305129   1.243902   3.985073
     7  H    4.901146   1.008333   1.576667   2.974370   5.596811
     8  H    4.325511   0.969187   3.011050   2.967317   4.809268
     9  H    3.111704   2.934352   4.878885   0.968545   3.609598
    10  H    6.255512   3.274171   0.966796   4.588420   7.107113
    11  H    6.994181   3.197211   0.967301   4.962006   7.762595
    12  H    1.621557   3.028544   4.939093   1.000451   2.319529
    13  H    0.967655   4.994003   6.549386   3.218504   1.538174
                    6          7          8          9         10
     6  H    0.000000
     7  H    1.842953   0.000000
     8  H    1.795542   1.607065   0.000000
     9  H    1.871846   3.567457   3.552719   0.000000
    10  H    3.791330   2.292678   3.693511   5.266801   0.000000
    11  H    3.987224   2.249663   3.656166   5.448438   1.544602
    12  H    1.926959   3.643877   3.344382   1.598911   5.175200
    13  H    4.032337   5.475070   5.075284   3.724464   6.541097
                   11         12         13
    11  H    0.000000
    12  H    5.716630   0.000000
    13  H    7.439420   2.272946   0.000000
 Stoichiometry    H9O4(1+)
 Framework group  C1[X(H9O4)]
 Deg. of freedom    33
 Full point group                 C1
 Largest Abelian subgroup         C1      NOp   1
 Largest concise Abelian subgroup C1      NOp   1
                         Standard orientation:                         
 ---------------------------------------------------------------------
 Center     Atomic     Atomic              Coordinates (Angstroms)
 Number     Number      Type              X           Y           Z
 ---------------------------------------------------------------------
    1          8             0       -3.046116    0.655845    0.221919
    2          8             0        1.010112   -0.689090    0.656703
    3          8             0        3.069920    0.634257   -0.166531
    4          8             0       -0.970506   -0.645710   -0.705149
    5          1             0       -3.774601    0.288845    0.741912
    6          1             0        0.031953   -0.652406    0.031276
    7          1             0        1.786750   -0.155927    0.297112
    8          1             0        0.895907   -0.477173    1.595517
    9          1             0       -1.219544   -1.509554   -1.065474
   10          1             0        3.095428    1.479580   -0.635011
   11          1             0        3.908078    0.194079   -0.365043
   12          1             0       -1.795587   -0.190696   -0.368836
   13          1             0       -3.435658    1.380847   -0.286985
 ---------------------------------------------------------------------
 Rotational constants (GHZ):      9.0192057      1.2272132      1.1878008
 Standard basis: Aug-CC-pVDZ (5D, 7F)
 There are   173 symmetry adapted basis functions of A   symmetry.
 Integral buffers will be    131072 words long.
 Raffenetti 1 integral format.
 Two-electron integral symmetry is turned on.
   173 basis functions,   271 primitive gaussians,   181 cartesian basis functions
    20 alpha electrons       20 beta electrons
       nuclear repulsion energy       140.5232676425 Hartrees.
 NAtoms=   13 NActive=   13 NUniq=   13 SFac= 7.50D-01 NAtFMM=   80 NAOKFM=F Big=F
 One-electron integrals computed using PRISM.
 NBasis=   173 RedAO= T  NBF=   173
 NBsUse=   173 1.00D-06 NBFU=   173
 Initial guess read from the read-write file:
 Initial guess orbital symmetries:
       Occupied  (A) (A) (A) (A) (A) (A) (A) (A) (A) (A) (A) (A)
                 (A) (A) (A) (A) (A) (A) (A) (A)
       Virtual   (A) (A) (A) (A) (A) (A) (A) (A) (A) (A) (A) (A)
                 (A) (A) (A) (A) (A) (A) (A) (A) (A) (A) (A) (A)
                 (A) (A) (A) (A) (A) (A) (A) (A) (A) (A) (A) (A)
                 (A) (A) (A) (A) (A) (A) (A) (A) (A) (A) (A) (A)
                 (A) (A) (A) (A) (A) (A) (A) (A) (A) (A) (A) (A)
                 (A) (A) (A) (A) (A) (A) (A) (A) (A) (A) (A) (A)
                 (A) (A) (A) (A) (A) (A) (A) (A) (A) (A) (A) (A)
                 (A) (A) (A) (A) (A) (A) (A) (A) (A) (A) (A) (A)
                 (A) (A) (A) (A) (A) (A) (A) (A) (A) (A) (A) (A)
                 (A) (A) (A) (A) (A) (A) (A) (A) (A) (A) (A) (A)
                 (A) (A) (A) (A) (A) (A) (A) (A) (A) (A) (A) (A)
                 (A) (A) (A) (A) (A) (A) (A) (A) (A) (A) (A) (A)
                 (A) (A) (A) (A) (A) (A) (A) (A) (A)
 Harris functional with IExCor=  205 diagonalized for initial guess.
 ExpMin= 2.97D-02 ExpMax= 1.17D+04 ExpMxC= 4.01D+02 IAcc=3 IRadAn=         5 AccDes= 0.00D+00
 HarFok:  IExCor= 205 AccDes= 0.00D+00 IRadAn=         5 IDoV=1
 ScaDFX=  1.000000  1.000000  1.000000  1.000000
 Requested convergence on RMS density matrix=1.00D-08 within 128 cycles.
 Requested convergence on MAX density matrix=1.00D-06.
 Requested convergence on             energy=1.00D-06.
 No special actions if energy rises.
 SCF Done:  E(RHF) =  -304.539998134     A.U. after    9 cycles
             Convg  =    0.5150D-08             -V/T =  2.0016
             S**2   =   0.0000
 ExpMin= 2.97D-02 ExpMax= 1.17D+04 ExpMxC= 4.01D+02 IAcc=3 IRadAn=         5 AccDes= 0.00D+00
 HarFok:  IExCor= 205 AccDes= 0.00D+00 IRadAn=         5 IDoV=1
 ScaDFX=  1.000000  1.000000  1.000000  1.000000
 Range of M.O.s used for correlation:     5   173
 NBasis=   173 NAE=    20 NBE=    20 NFC=     4 NFV=     0
 NROrb=    169 NOA=    16 NOB=    16 NVA=   153 NVB=   153
 Fully direct method using O(ONN) memory.
 JobTyp=1 Pass  1:  I=   5 to  20 NPSUse=  2 ParTrn=T ParDer=T DoDerP=T.
 Spin components of T(2) and E(2):
     alpha-alpha T2 =       0.3082114626D-01 E2=     -0.1146584456D+00
     alpha-beta  T2 =       0.1713342215D+00 E2=     -0.6611688077D+00
     beta-beta   T2 =       0.3082114626D-01 E2=     -0.1146584456D+00
 ANorm=    0.1110394756D+01
 E2 =    -0.8904856989D+00 EUMP2 =    -0.30543048383333D+03
 DoAtom=TTTTTTTTTTTTT
          Differentiating once with respect to electric field.
                with respect to dipole field.
          Differentiating once with respect to nuclear coordinates.
          There are   1 degrees of freedom in the 1st order CPHF.
 Petite list used in FoFDir.
 MinBra= 0 MaxBra= 2 Meth= 1.
 IRaf=       0 NMat=   1 IRICut=       1 DoRegI=T DoRafI=F ISym2E= 1 JSym2E=1.
     1 vectors were produced by pass  0.
 AX will form   1 AO Fock derivatives at one time.
     1 vectors were produced by pass  1.
     1 vectors were produced by pass  2.
     1 vectors were produced by pass  3.
     1 vectors were produced by pass  4.
     1 vectors were produced by pass  5.
     1 vectors were produced by pass  6.
     1 vectors were produced by pass  7.
     1 vectors were produced by pass  8.
     1 vectors were produced by pass  9.
     1 vectors were produced by pass 10.
     1 vectors were produced by pass 11.
     1 vectors were produced by pass 12.
 Inv2:  IOpt= 1 Iter= 1 AM= 2.96D-16 Conv= 1.00D-12.
 Inverted reduced A of dimension   13 with in-core refinement.
 End of Minotr Frequency-dependent properties file   721 does not exist.
 ***** Axes restored to original set *****
 -------------------------------------------------------------------
 Center     Atomic                   Forces (Hartrees/Bohr)
 Number     Number              X              Y              Z
 -------------------------------------------------------------------
    1          8          -0.000356327   -0.000238299    0.000296318
    2          8           0.000307370   -0.000638274    0.000106569
    3          8           0.000140388   -0.000039648   -0.000483572
    4          8          -0.000467913    0.000073749   -0.000019457
    5          1           0.000052136    0.000051632   -0.000173981
    6          1          -0.000147663    0.000567480   -0.000297271
    7          1          -0.000287104    0.000313918    0.000680048
    8          1          -0.000007765    0.000036784   -0.000107477
    9          1           0.000118357   -0.000172840    0.000143261
   10          1           0.000066468   -0.000015626    0.000192744
   11          1          -0.000169292   -0.000053111   -0.000059878
   12          1           0.000661204    0.000104840   -0.000398093
   13          1           0.000090141    0.000009396    0.000120789
 -------------------------------------------------------------------
 Cartesian Forces:  Max     0.000680048 RMS     0.000284636

 GradGradGradGradGradGradGradGradGradGradGradGradGradGradGradGradGradGrad
 Berny optimization.
 Internal  Forces:  Max     0.000603152 RMS     0.000205589
 Search for a local minimum.
 Step number   3 out of a maximum of  51
 All quantities printed in internal units (Hartrees-Bohrs-Radians)
 Update second derivatives using D2CorX and points  1  2  3
 Trust test= 1.68D+00 RLast= 4.31D-02 DXMaxT set to 4.24D-01
     Eigenvalues ---    0.00186   0.00230   0.00230   0.00241   0.00768
     Eigenvalues ---    0.01147   0.01345   0.02454   0.07761   0.08899
     Eigenvalues ---    0.12719   0.13858   0.14706   0.16000   0.16000
     Eigenvalues ---    0.16000   0.16039   0.16771   0.21414   0.22451
     Eigenvalues ---    0.24247   0.24580   0.24885   0.24974   0.26791
     Eigenvalues ---    0.45745   0.47665   0.52733   0.52871   0.53118
     Eigenvalues ---    0.53158   0.53315   0.568951000.000001000.00000
     Eigenvalues --- 1000.000001000.000001000.000001000.000001000.00000
     Eigenvalues --- 1000.00000
 RFO step:  Lambda=-1.80537109D-05.
 Quartic linear search produced a step of  2.00000.
 Iteration  1 RMS(Cart)=  0.03409600 RMS(Int)=  0.00085523
 Iteration  2 RMS(Cart)=  0.00064432 RMS(Int)=  0.00011521
 Iteration  3 RMS(Cart)=  0.00000043 RMS(Int)=  0.00011521
 Variable       Old X    -DE/DX   Delta X   Delta X   Delta X     New X
                                 (Linear)    (Quad)   (Total)
    R1        1.82803   0.00015   0.00162  -0.00082   0.00080   1.82883
    R2        3.06430  -0.00016  -0.00824  -0.00149  -0.00973   3.05457
    R3        1.82860   0.00014   0.00157  -0.00084   0.00073   1.82934
    R4        2.19509  -0.00033  -0.00339  -0.00240  -0.00579   2.18930
    R5        1.90547   0.00037  -0.00037   0.00159   0.00122   1.90670
    R6        1.83150   0.00006  -0.00037  -0.00005  -0.00041   1.83108
    R7        2.97947  -0.00022  -0.00934  -0.00229  -0.01163   2.96784
    R8        1.82698   0.00019   0.00112  -0.00029   0.00084   1.82782
    R9        1.82793   0.00019   0.00114  -0.00030   0.00084   1.82878
   R10        2.35063   0.00018   0.00101   0.00091   0.00192   2.35255
   R11        1.83028   0.00004  -0.00008  -0.00031  -0.00039   1.82989
   R12        1.89058   0.00029  -0.00003   0.00091   0.00088   1.89146
    A1        2.18773  -0.00017  -0.00208  -0.00119  -0.00327   2.18446
    A2        1.83775   0.00003  -0.00151   0.00078  -0.00073   1.83702
    A3        2.10598   0.00014   0.00269   0.00167   0.00437   2.11034
    A4        2.02626   0.00033   0.01005   0.00411   0.01399   2.04025
    A5        1.99919  -0.00010   0.00513   0.00158   0.00647   2.00567
    A6        1.89715  -0.00006   0.00151   0.00237   0.00367   1.90082
    A7        2.21701  -0.00009  -0.00103  -0.00099  -0.00203   2.21498
    A8        2.13824   0.00007   0.00168   0.00041   0.00208   2.14032
    A9        1.84999   0.00006  -0.00435   0.00236  -0.00200   1.84798
   A10        2.00718   0.00004   0.00929   0.00344   0.01239   2.01957
   A11        2.05789   0.00033   0.00991   0.00579   0.01541   2.07331
   A12        1.89510  -0.00018   0.00055   0.00192   0.00210   1.89721
   A13        3.07180  -0.00060  -0.00581  -0.00349  -0.00929   3.06250
   A14        3.08785   0.00026   0.00333   0.00165   0.00495   3.09281
   A15        3.07386   0.00004   0.00035   0.00057   0.00091   3.07477
   A16        3.03902  -0.00035  -0.00349  -0.00258  -0.00604   3.03298
   A17        3.24205   0.00036   0.00401   0.00273   0.00671   3.24875
    D1       -1.60990  -0.00013  -0.00181   0.00158  -0.00028  -1.61018
    D2        0.73055   0.00018   0.02375   0.01549   0.03929   0.76984
    D3        2.14332  -0.00015   0.00025  -0.00113  -0.00092   2.14240
    D4       -1.79942   0.00016   0.02581   0.01279   0.03865  -1.76077
    D5        0.59192   0.00012   0.00793   0.01218   0.02017   0.61209
    D6       -2.10604   0.00013   0.02163   0.00726   0.02895  -2.07709
    D7       -1.70499  -0.00011  -0.01151   0.00283  -0.00873  -1.71372
    D8        1.88023  -0.00011   0.00219  -0.00208   0.00005   1.88028
    D9        1.03331  -0.00005   0.02286  -0.01758   0.00521   1.03853
   D10       -3.01525   0.00007   0.03963  -0.00858   0.03111  -2.98414
   D11        1.02190  -0.00004   0.02555  -0.01749   0.00790   1.02980
   D12       -2.98960   0.00007   0.04669  -0.00465   0.04220  -2.94740
         Item               Value     Threshold  Converged?
 Maximum Force            0.000603     0.000450     NO 
 RMS     Force            0.000206     0.000300     YES
 Maximum Displacement     0.101942     0.001800     NO 
 RMS     Displacement     0.034035     0.001200     NO 
 Predicted change in Energy=-2.982718D-05
 GradGradGradGradGradGradGradGradGradGradGradGradGradGradGradGradGradGrad

                          Input orientation:                          
 ---------------------------------------------------------------------
 Center     Atomic     Atomic              Coordinates (Angstroms)
 Number     Number      Type              X           Y           Z
 ---------------------------------------------------------------------
    1          8             0        3.062643    0.214327    0.637514
    2          8             0       -0.966690    0.444969   -0.889592
    3          8             0       -3.057315    0.263607    0.607052
    4          8             0        0.935548   -0.925444   -0.369025
    5          1             0        3.827790    0.545464    0.146100
    6          1             0       -0.022936   -0.176689   -0.634531
    7          1             0       -1.758559    0.346857   -0.272049
    8          1             0       -0.804839    1.387542   -1.045345
    9          1             0        1.161271   -1.576317   -1.049534
   10          1             0       -3.103217    0.139952    1.565254
   11          1             0       -3.904034   -0.049862    0.258714
   12          1             0        1.781348   -0.520249   -0.019340
   13          1             0        3.413315   -0.069000    1.494172
 ---------------------------------------------------------------------
                    Distance matrix (angstroms):
                    1          2          3          4          5
     1  O    0.000000
     2  O    4.315180   0.000000
     3  O    6.120232   2.577508   0.000000
     4  O    2.614715   2.401568   4.278963   0.000000
     5  H    0.967775   4.906098   6.906272   3.285420   0.000000
     6  H    3.360326   1.158528   3.307997   1.244917   3.994869
     7  H    4.908040   1.008980   1.570515   2.981000   5.605496
     8  H    4.377883   0.968968   3.011195   2.972584   4.856941
     9  H    3.109301   2.939286   4.891428   0.968339   3.611346
    10  H    6.235709   3.268647   0.967238   4.603057   7.086416
    11  H    6.981967   3.192405   0.967747   4.958049   7.755526
    12  H    1.616409   3.039851   4.941604   1.000919   2.313232
    13  H    0.968043   5.013077   6.539623   3.216260   1.538393
                    6          7          8          9         10
     6  H    0.000000
     7  H    1.848751   0.000000
     8  H    1.796373   1.609532   0.000000
     9  H    1.879770   3.581688   3.556693   0.000000
    10  H    3.798349   2.286176   3.695166   5.288531   0.000000
    11  H    3.984582   2.245475   3.656735   5.449669   1.544145
    12  H    1.936991   3.653310   3.373531   1.600335   5.177430
    13  H    4.043612   5.480945   5.134538   3.716739   6.520269
                   11         12         13
    11  H    0.000000
    12  H    5.711579   0.000000
    13  H    7.420938   2.271049   0.000000
 Stoichiometry    H9O4(1+)
 Framework group  C1[X(H9O4)]
 Deg. of freedom    33
 Full point group                 C1
 Largest Abelian subgroup         C1      NOp   1
 Largest concise Abelian subgroup C1      NOp   1
                         Standard orientation:                         
 ---------------------------------------------------------------------
 Center     Atomic     Atomic              Coordinates (Angstroms)
 Number     Number      Type              X           Y           Z
 ---------------------------------------------------------------------
    1          8             0       -3.044971    0.663412    0.229447
    2          8             0        1.024066   -0.716937    0.627374
    3          8             0        3.063233    0.652349   -0.153906
    4          8             0       -0.978429   -0.643898   -0.696336
    5          1             0       -3.774499    0.297301    0.749389
    6          1             0        0.034615   -0.665841    0.026906
    7          1             0        1.793298   -0.159136    0.287991
    8          1             0        0.930413   -0.575348    1.581355
    9          1             0       -1.232633   -1.491693   -1.089153
   10          1             0        3.079013    1.526109   -0.568446
   11          1             0        3.894232    0.224875   -0.405382
   12          1             0       -1.802287   -0.186933   -0.358283
   13          1             0       -3.433344    1.391266   -0.277015
 ---------------------------------------------------------------------
 Rotational constants (GHZ):      8.9370450      1.2302402      1.1843844
 Standard basis: Aug-CC-pVDZ (5D, 7F)
 There are   173 symmetry adapted basis functions of A   symmetry.
 Integral buffers will be    131072 words long.
 Raffenetti 1 integral format.
 Two-electron integral symmetry is turned on.
   173 basis functions,   271 primitive gaussians,   181 cartesian basis functions
    20 alpha electrons       20 beta electrons
       nuclear repulsion energy       140.5254301764 Hartrees.
 NAtoms=   13 NActive=   13 NUniq=   13 SFac= 7.50D-01 NAtFMM=   80 NAOKFM=F Big=F
 One-electron integrals computed using PRISM.
 NBasis=   173 RedAO= T  NBF=   173
 NBsUse=   173 1.00D-06 NBFU=   173
 Initial guess read from the read-write file:
 Initial guess orbital symmetries:
       Occupied  (A) (A) (A) (A) (A) (A) (A) (A) (A) (A) (A) (A)
                 (A) (A) (A) (A) (A) (A) (A) (A)
       Virtual   (A) (A) (A) (A) (A) (A) (A) (A) (A) (A) (A) (A)
                 (A) (A) (A) (A) (A) (A) (A) (A) (A) (A) (A) (A)
                 (A) (A) (A) (A) (A) (A) (A) (A) (A) (A) (A) (A)
                 (A) (A) (A) (A) (A) (A) (A) (A) (A) (A) (A) (A)
                 (A) (A) (A) (A) (A) (A) (A) (A) (A) (A) (A) (A)
                 (A) (A) (A) (A) (A) (A) (A) (A) (A) (A) (A) (A)
                 (A) (A) (A) (A) (A) (A) (A) (A) (A) (A) (A) (A)
                 (A) (A) (A) (A) (A) (A) (A) (A) (A) (A) (A) (A)
                 (A) (A) (A) (A) (A) (A) (A) (A) (A) (A) (A) (A)
                 (A) (A) (A) (A) (A) (A) (A) (A) (A) (A) (A) (A)
                 (A) (A) (A) (A) (A) (A) (A) (A) (A) (A) (A) (A)
                 (A) (A) (A) (A) (A) (A) (A) (A) (A) (A) (A) (A)
                 (A) (A) (A) (A) (A) (A) (A) (A) (A)
 Harris functional with IExCor=  205 diagonalized for initial guess.
 ExpMin= 2.97D-02 ExpMax= 1.17D+04 ExpMxC= 4.01D+02 IAcc=3 IRadAn=         5 AccDes= 0.00D+00
 HarFok:  IExCor= 205 AccDes= 0.00D+00 IRadAn=         5 IDoV=1
 ScaDFX=  1.000000  1.000000  1.000000  1.000000
 Requested convergence on RMS density matrix=1.00D-08 within 128 cycles.
 Requested convergence on MAX density matrix=1.00D-06.
 Requested convergence on             energy=1.00D-06.
 No special actions if energy rises.
 SCF Done:  E(RHF) =  -304.539984843     A.U. after   10 cycles
             Convg  =    0.2256D-08             -V/T =  2.0016
             S**2   =   0.0000
 ExpMin= 2.97D-02 ExpMax= 1.17D+04 ExpMxC= 4.01D+02 IAcc=3 IRadAn=         5 AccDes= 0.00D+00
 HarFok:  IExCor= 205 AccDes= 0.00D+00 IRadAn=         5 IDoV=1
 ScaDFX=  1.000000  1.000000  1.000000  1.000000
 Range of M.O.s used for correlation:     5   173
 NBasis=   173 NAE=    20 NBE=    20 NFC=     4 NFV=     0
 NROrb=    169 NOA=    16 NOB=    16 NVA=   153 NVB=   153

 **** Warning!!: The largest alpha MO coefficient is  0.10063058D+02

 Fully direct method using O(ONN) memory.
 JobTyp=1 Pass  1:  I=   5 to  20 NPSUse=  2 ParTrn=T ParDer=T DoDerP=T.
 Spin components of T(2) and E(2):
     alpha-alpha T2 =       0.3082437442D-01 E2=     -0.1146796823D+00
     alpha-beta  T2 =       0.1713134681D+00 E2=     -0.6611728880D+00
     beta-beta   T2 =       0.3082437442D-01 E2=     -0.1146796823D+00
 ANorm=    0.1110388318D+01
 E2 =    -0.8905322527D+00 EUMP2 =    -0.30543051709576D+03
 DoAtom=TTTTTTTTTTTTT
          Differentiating once with respect to electric field.
                with respect to dipole field.
          Differentiating once with respect to nuclear coordinates.
          There are   1 degrees of freedom in the 1st order CPHF.
 Petite list used in FoFDir.
 MinBra= 0 MaxBra= 2 Meth= 1.
 IRaf=       0 NMat=   1 IRICut=       1 DoRegI=T DoRafI=F ISym2E= 1 JSym2E=1.
     1 vectors were produced by pass  0.
 AX will form   1 AO Fock derivatives at one time.
     1 vectors were produced by pass  1.
     1 vectors were produced by pass  2.
     1 vectors were produced by pass  3.
     1 vectors were produced by pass  4.
     1 vectors were produced by pass  5.
     1 vectors were produced by pass  6.
     1 vectors were produced by pass  7.
     1 vectors were produced by pass  8.
     1 vectors were produced by pass  9.
     1 vectors were produced by pass 10.
     1 vectors were produced by pass 11.
     1 vectors were produced by pass 12.
 Inv2:  IOpt= 1 Iter= 1 AM= 2.72D-16 Conv= 1.00D-12.
 Inverted reduced A of dimension   13 with in-core refinement.
 End of Minotr Frequency-dependent properties file   721 does not exist.
 ***** Axes restored to original set *****
 -------------------------------------------------------------------
 Center     Atomic                   Forces (Hartrees/Bohr)
 Number     Number              X              Y              Z
 -------------------------------------------------------------------
    1          8           0.000464500   -0.000079898    0.000452851
    2          8           0.000053358   -0.000104773   -0.000371065
    3          8          -0.000626679   -0.000295747    0.000114272
    4          8           0.000128200   -0.000143136    0.000322691
    5          1          -0.000290170   -0.000043923   -0.000002738
    6          1          -0.000358031    0.000234221   -0.000218798
    7          1           0.000079231    0.000001592    0.000621428
    8          1           0.000131980    0.000025161   -0.000038799
    9          1          -0.000100534    0.000006925    0.000006246
   10          1           0.000250040    0.000128319   -0.000152343
   11          1           0.000235320    0.000104918   -0.000121631
   12          1           0.000181938    0.000089409   -0.000417260
   13          1          -0.000149151    0.000076932   -0.000194855
 -------------------------------------------------------------------
 Cartesian Forces:  Max     0.000626679 RMS     0.000248947

 GradGradGradGradGradGradGradGradGradGradGradGradGradGradGradGradGradGrad
 Berny optimization.
 Internal  Forces:  Max     0.000329553 RMS     0.000153290
 Search for a local minimum.
 Step number   4 out of a maximum of  51
 All quantities printed in internal units (Hartrees-Bohrs-Radians)
 Update second derivatives using D2CorX and points  1  2  3  4
 Trust test= 1.12D+00 RLast= 9.14D-02 DXMaxT set to 4.24D-01
     Eigenvalues ---    0.00169   0.00230   0.00230   0.00240   0.00808
     Eigenvalues ---    0.00997   0.01339   0.02279   0.07659   0.08846
     Eigenvalues ---    0.12518   0.13988   0.14726   0.15999   0.16000
     Eigenvalues ---    0.16005   0.16046   0.17021   0.21473   0.22039
     Eigenvalues ---    0.24218   0.24769   0.24882   0.25114   0.26800
     Eigenvalues ---    0.45421   0.46520   0.52696   0.52825   0.53106
     Eigenvalues ---    0.53129   0.53195   0.604861000.000001000.00000
     Eigenvalues --- 1000.000001000.000001000.000001000.000001000.00000
     Eigenvalues --- 1000.00000
 RFO step:  Lambda=-7.19810059D-06.
 Quartic linear search produced a step of  0.29330.
 Iteration  1 RMS(Cart)=  0.02971636 RMS(Int)=  0.00028791
 Iteration  2 RMS(Cart)=  0.00035785 RMS(Int)=  0.00004206
 Iteration  3 RMS(Cart)=  0.00000007 RMS(Int)=  0.00004206
 Variable       Old X    -DE/DX   Delta X   Delta X   Delta X     New X
                                 (Linear)    (Quad)   (Total)
    R1        1.82883  -0.00024   0.00023  -0.00042  -0.00018   1.82865
    R2        3.05457   0.00010  -0.00285   0.00081  -0.00205   3.05252
    R3        1.82934  -0.00025   0.00022  -0.00043  -0.00022   1.82912
    R4        2.18930  -0.00019  -0.00170  -0.00105  -0.00275   2.18655
    R5        1.90670   0.00033   0.00036   0.00067   0.00103   1.90773
    R6        1.83108   0.00006  -0.00012   0.00007  -0.00005   1.83103
    R7        2.96784   0.00003  -0.00341  -0.00033  -0.00374   2.96410
    R8        1.82782  -0.00018   0.00024  -0.00035  -0.00010   1.82771
    R9        1.82878  -0.00020   0.00025  -0.00039  -0.00014   1.82864
   R10        2.35255   0.00028   0.00056   0.00157   0.00214   2.35469
   R11        1.82989  -0.00003  -0.00011  -0.00011  -0.00022   1.82967
   R12        1.89146   0.00013   0.00026   0.00020   0.00046   1.89192
    A1        2.18446  -0.00014  -0.00096  -0.00055  -0.00151   2.18294
    A2        1.83702   0.00013  -0.00021   0.00144   0.00123   1.83825
    A3        2.11034   0.00004   0.00128   0.00106   0.00234   2.11269
    A4        2.04025  -0.00010   0.00410  -0.00015   0.00390   2.04415
    A5        2.00567  -0.00009   0.00190  -0.00018   0.00164   2.00731
    A6        1.90082   0.00013   0.00108   0.00096   0.00197   1.90279
    A7        2.21498  -0.00018  -0.00060  -0.00064  -0.00124   2.21374
    A8        2.14032  -0.00009   0.00061   0.00019   0.00080   2.14111
    A9        1.84798   0.00028  -0.00059   0.00237   0.00178   1.84976
   A10        2.01957  -0.00018   0.00363   0.00006   0.00356   2.02313
   A11        2.07331   0.00018   0.00452   0.00249   0.00690   2.08021
   A12        1.89721   0.00004   0.00062   0.00088   0.00136   1.89857
   A13        3.06250  -0.00011  -0.00273  -0.00080  -0.00353   3.05898
   A14        3.09281   0.00012   0.00145   0.00071   0.00216   3.09496
   A15        3.07477   0.00010   0.00027   0.00043   0.00069   3.07546
   A16        3.03298  -0.00033  -0.00177  -0.00178  -0.00354   3.02944
   A17        3.24875   0.00032   0.00197   0.00182   0.00378   3.25253
    D1       -1.61018   0.00001  -0.00008   0.00847   0.00837  -1.60181
    D2        0.76984   0.00007   0.01152   0.01290   0.02444   0.79428
    D3        2.14240  -0.00005  -0.00027   0.00409   0.00380   2.14619
    D4       -1.76077   0.00002   0.01134   0.00851   0.01987  -1.74090
    D5        0.61209   0.00005   0.00592   0.01060   0.01653   0.62863
    D6       -2.07709   0.00000   0.00849   0.00468   0.01319  -2.06390
    D7       -1.71372   0.00003  -0.00256   0.00937   0.00679  -1.70694
    D8        1.88028  -0.00002   0.00001   0.00345   0.00344   1.88372
    D9        1.03853   0.00002   0.00153   0.01150   0.01301   1.05154
   D10       -2.98414   0.00001   0.00912   0.01261   0.02175  -2.96239
   D11        1.02980  -0.00001   0.00232   0.01174   0.01401   1.04381
   D12       -2.94740   0.00005   0.01238   0.01610   0.02852  -2.91888
         Item               Value     Threshold  Converged?
 Maximum Force            0.000330     0.000450     YES
 RMS     Force            0.000153     0.000300     YES
 Maximum Displacement     0.074434     0.001800     NO 
 RMS     Displacement     0.029658     0.001200     NO 
 Predicted change in Energy=-5.218345D-06
 GradGradGradGradGradGradGradGradGradGradGradGradGradGradGradGradGradGrad

                          Input orientation:                          
 ---------------------------------------------------------------------
 Center     Atomic     Atomic              Coordinates (Angstroms)
 Number     Number      Type              X           Y           Z
 ---------------------------------------------------------------------
    1          8             0        3.052519    0.208612    0.657358
    2          8             0       -0.974967    0.434392   -0.903017
    3          8             0       -3.046787    0.268331    0.618853
    4          8             0        0.940440   -0.919751   -0.390504
    5          1             0        3.816905    0.558828    0.178330
    6          1             0       -0.024958   -0.176749   -0.652400
    7          1             0       -1.759218    0.344696   -0.273693
    8          1             0       -0.821702    1.373718   -1.084733
    9          1             0        1.174131   -1.566155   -1.072415
   10          1             0       -3.080783    0.172309    1.580657
   11          1             0       -3.893010   -0.064364    0.287777
   12          1             0        1.781602   -0.517183   -0.026211
   13          1             0        3.400153   -0.091527    1.509387
 ---------------------------------------------------------------------
                    Distance matrix (angstroms):
                    1          2          3          4          5
     1  O    0.000000
     2  O    4.325088   0.000000
     3  O    6.099721   2.576063   0.000000
     4  O    2.613828   2.401073   4.281159   0.000000
     5  H    0.967679   4.913942   6.883946   3.283872   0.000000
     6  H    3.366725   1.157073   3.308418   1.246047   3.998887
     7  H    4.902875   1.009526   1.568536   2.983391   5.598510
     8  H    4.404764   0.968940   3.012489   2.974407   4.876069
     9  H    3.109704   2.941004   4.903252   0.968222   3.614439
    10  H    6.202516   3.266770   0.967183   4.609589   7.049398
    11  H    6.960710   3.190881   0.967673   4.955198   7.735834
    12  H    1.615326   3.045153   4.934215   1.001161   2.311297
    13  H    0.967929   5.023739   6.518097   3.216478   1.538946
                    6          7          8          9         10
     6  H    0.000000
     7  H    1.850130   0.000000
     8  H    1.796013   1.611089   0.000000
     9  H    1.882731   3.590800   3.553358   0.000000
    10  H    3.800849   2.283608   3.694745   5.307103   0.000000
    11  H    3.982259   2.244025   3.658524   5.457235   1.545078
    12  H    1.942078   3.652600   3.387207   1.601221   5.167225
    13  H    4.051169   5.476200   5.167249   3.714217   6.486696
[...]
 Vib (Bot) 11    0.533284D+00         -0.273042         -0.628702
 Vib (Bot) 12    0.522400D+00         -0.281997         -0.649321
 Vib (Bot) 13    0.436914D+00         -0.359604         -0.828020
 Vib (Bot) 14    0.326176D+00         -0.486549         -1.120319
 Vib (Bot) 15    0.253631D+00         -0.595798         -1.371876
 Vib (V=0)       0.699209D+04          3.844607          8.852535
 Vib (V=0)  1    0.871913D+01          0.940473          2.165520
 Vib (V=0)  2    0.399832D+01          0.601878          1.385874
 Vib (V=0)  3    0.341011D+01          0.532768          1.226743
 Vib (V=0)  4    0.250877D+01          0.399460          0.919791
 Vib (V=0)  5    0.205397D+01          0.312595          0.719776
 Vib (V=0)  6    0.161550D+01          0.208306          0.479642
 Vib (V=0)  7    0.148016D+01          0.170310          0.392153
 Vib (V=0)  8    0.133291D+01          0.124800          0.287363
 Vib (V=0)  9    0.129582D+01          0.112545          0.259144
 Vib (V=0) 10    0.126451D+01          0.101922          0.234684
 Vib (V=0) 11    0.123102D+01          0.090265          0.207844
 Vib (V=0) 12    0.122312D+01          0.087469          0.201405
 Vib (V=0) 13    0.116400D+01          0.065952          0.151861
 Vib (V=0) 14    0.109698D+01          0.040201          0.092565
 Vib (V=0) 15    0.106065D+01          0.025572          0.058882
 Electronic      0.100000D+01          0.000000          0.000000
 Translational   0.245407D+08          7.389886         17.015842
 Rotational      0.244559D+06          5.388384         12.407212
 ***** Axes restored to original set *****
 -------------------------------------------------------------------
 Center     Atomic                   Forces (Hartrees/Bohr)
 Number     Number              X              Y              Z
 -------------------------------------------------------------------
    1          8           0.000127698   -0.000003394    0.000039748
    2          8           0.000016408    0.000024582    0.000026702
    3          8          -0.000086566   -0.000058219    0.000088823
    4          8           0.000081140   -0.000047135   -0.000030912
    5          1          -0.000075585   -0.000032158    0.000029019
    6          1          -0.000021558    0.000013112   -0.000020317
    7          1          -0.000022672   -0.000004483   -0.000027209
    8          1           0.000011428   -0.000030590    0.000002289
    9          1          -0.000023026    0.000028318    0.000021125
   10          1           0.000023123    0.000018256   -0.000079805
   11          1           0.000077272    0.000038553    0.000000170
   12          1          -0.000075333    0.000022850    0.000023515
   13          1          -0.000032330    0.000030307   -0.000073147
 -------------------------------------------------------------------
 Cartesian Forces:  Max     0.000127698 RMS     0.000047916

 GradGradGradGradGradGradGradGradGradGradGradGradGradGradGradGradGradGrad
 Berny optimization.
 Internal  Forces:  Max     0.000085928 RMS     0.000030972
 Search for a local minimum.
 Step number   1 out of a maximum of   2
 All quantities printed in internal units (Hartrees-Bohrs-Radians)
 Second derivative matrix not updated -- analytic derivatives used.
     Eigenvalues ---    0.00009   0.00045   0.00065   0.00170   0.00227
     Eigenvalues ---    0.00342   0.00390   0.00732   0.00904   0.01062
     Eigenvalues ---    0.01214   0.01932   0.02294   0.02315   0.02574
     Eigenvalues ---    0.02878   0.03665   0.04094   0.05169   0.07379
     Eigenvalues ---    0.09287   0.09427   0.10237   0.10339   0.26388
     Eigenvalues ---    0.39178   0.42873   0.52348   0.52566   0.52627
     Eigenvalues ---    0.52958   0.53847   0.538751000.000001000.00000
     Eigenvalues --- 1000.000001000.000001000.000001000.000001000.00000
     Eigenvalues --- 1000.00000
 Angle between quadratic step and forces=  78.15 degrees.
 Linear search not attempted -- first point.
 Iteration  1 RMS(Cart)=  0.00225983 RMS(Int)=  0.00000327
 Iteration  2 RMS(Cart)=  0.00000485 RMS(Int)=  0.00000024
 Iteration  3 RMS(Cart)=  0.00000000 RMS(Int)=  0.00000024
 Variable       Old X    -DE/DX   Delta X   Delta X   Delta X     New X
                                 (Linear)    (Quad)   (Total)
    R1        1.82830  -0.00009   0.00000  -0.00019  -0.00019   1.82811
    R2        3.08278   0.00001   0.00000   0.00134   0.00134   3.08412
    R3        1.82870  -0.00009   0.00000  -0.00019  -0.00019   1.82851
    R4        2.13553  -0.00002   0.00000  -0.00160  -0.00160   2.13393
    R5        1.91446   0.00000   0.00000   0.00023   0.00023   1.91469
    R6        1.83196  -0.00003   0.00000  -0.00003  -0.00003   1.83193
    R7        2.93787  -0.00001   0.00000  -0.00119  -0.00119   2.93668
    R8        1.82772  -0.00008   0.00000  -0.00017  -0.00017   1.82755
    R9        1.82864  -0.00008   0.00000  -0.00017  -0.00017   1.82847
   R10        2.42245   0.00000   0.00000   0.00223   0.00223   2.42468
   R11        1.82910  -0.00004   0.00000  -0.00010  -0.00010   1.82901
   R12        1.88673  -0.00003   0.00000  -0.00028  -0.00028   1.88645
    A1        2.18445  -0.00001   0.00000  -0.00040  -0.00040   2.18405
    A2        1.83726   0.00001   0.00000   0.00016   0.00016   1.83742
    A3        2.11366   0.00001   0.00000   0.00122   0.00122   2.11487
    A4        2.02728   0.00000   0.00000  -0.00048  -0.00048   2.02680
    A5        1.98993  -0.00001   0.00000  -0.00069  -0.00070   1.98923
    A6        1.90772   0.00002   0.00000   0.00034   0.00034   1.90806
    A7        2.20844  -0.00001   0.00000  -0.00007  -0.00007   2.20837
    A8        2.13516  -0.00002   0.00000   0.00020   0.00020   2.13536
    A9        1.85223   0.00003   0.00000   0.00048   0.00048   1.85271
   A10        2.03434  -0.00001   0.00000   0.00038   0.00038   2.03472
   A11        2.09872  -0.00002   0.00000   0.00003   0.00003   2.09875
   A12        1.89386   0.00002   0.00000  -0.00020  -0.00020   1.89366
   A13        3.05857   0.00002   0.00000   0.00053   0.00053   3.05910
   A14        3.09745   0.00001   0.00000   0.00072   0.00072   3.09818
   A15        3.07530   0.00004   0.00000   0.00187   0.00187   3.07716
   A16        2.99385   0.00002   0.00000   0.00218   0.00218   2.99603
   A17        3.28081  -0.00003   0.00000  -0.00384  -0.00384   3.27696
    D1       -1.57918   0.00001   0.00000   0.00217   0.00217  -1.57701
    D2        0.86048   0.00000   0.00000   0.00156   0.00156   0.86204
    D3        2.16418   0.00000   0.00000   0.00117   0.00117   2.16536
    D4       -1.67935   0.00000   0.00000   0.00056   0.00056  -1.67878
    D5        0.63219   0.00000   0.00000  -0.00197  -0.00197   0.63023
    D6       -2.03669  -0.00001   0.00000  -0.00330  -0.00330  -2.03999
    D7       -1.67661   0.00001   0.00000  -0.00039  -0.00039  -1.67700
    D8        1.93769   0.00000   0.00000  -0.00173  -0.00173   1.93597
    D9        1.04706  -0.00001   0.00000  -0.00472  -0.00472   1.04234
   D10       -2.99405   0.00000   0.00000  -0.00537  -0.00537  -2.99942
   D11        1.05258   0.00000   0.00000   0.00364   0.00364   1.05623
   D12       -2.88110   0.00000   0.00000   0.00382   0.00382  -2.87728
         Item               Value     Threshold  Converged?
 Maximum Force            0.000086     0.000450     YES
 RMS     Force            0.000031     0.000300     YES
 Maximum Displacement     0.005940     0.001800     NO 
 RMS     Displacement     0.002262     0.001200     NO 
 Predicted change in Energy=-2.439561D-07
 GradGradGradGradGradGradGradGradGradGradGradGradGradGradGradGradGradGrad

 1\1\GINC-POLARIS-C19\Freq\RMP2-FC\Aug-CC-pVDZ\H9O4(1+)\G060005\14-Aug-
 2007\0\\#N Geom=AllCheck Guess=Read SCRF=Check GenChk RMP2(FC)/Aug-CC-
 pVDZ Freq\\Title Card Required\\1,1\O,3.0557059475,0.2035666239,0.6789
 419366\O,-0.996389826,0.4309850363,-0.9299541381\O,-3.0296730344,0.272
 784452,0.6254530625\O,0.9375718558,-0.9078200535,-0.405495062\H,3.8203
 949577,0.5736696892,0.2159992183\H,-0.0623974963,-0.1550030403,-0.6822
 763038\H,-1.7635079619,0.3469151561,-0.2735948532\H,-0.8359068437,1.36
 85750267,-1.1169606556\H,1.1731263372,-1.5747903914,-1.0662011121\H,-3
 .0476718607,0.1975048261,1.5895394245\H,-3.8665863491,-0.0977060807,0.
 3112771265\H,1.7785607331,-0.5127962342,-0.0400801289\H,3.4010985407,-
 0.1207280102,1.5227404852\\Version=AM64L-G03RevD.01\State=1-A\HF=-304.
 5403145\MP2=-305.4305591\RMSD=1.219e-09\RMSF=4.792e-05\ZeroPoint=0.106
 45\Thermal=0.1171417\Dipole=0.129956,0.0678366,0.0958017\DipoleDeriv=-
 0.6784143,-0.0821405,-0.0934245,-0.1311185,-0.5967991,-0.0933062,-0.11
 54559,-0.0795678,-0.565792,-1.3066588,0.3053437,0.1168961,0.3349468,-0
 .5462747,0.0954174,0.1372855,0.1129538,-0.5782815,-0.7778025,0.0322363
 ,0.154394,0.0240309,-0.5302424,-0.008199,0.1892944,-0.0127326,-0.59513
 02,-1.230856,0.1377655,-0.2521532,0.2090528,-0.7093862,0.0092348,-0.28
 32971,0.0387562,-0.518506,0.2518115,-0.0074524,-0.032863,-0.0051136,0.
 3478315,-0.0009182,-0.0487335,-0.0075324,0.2952333,1.4876657,-0.737668
 5,0.1809196,-0.8851824,0.709732,-0.1130131,0.2666256,-0.145519,0.27258
 38,1.0443225,0.0932181,-0.4844459,0.136221,0.2258195,-0.04272,-0.58445
 91,-0.0310267,0.6065065,0.2691987,0.0236215,0.0166562,0.0106229,0.3705
 45,-0.0504243,0.0231221,-0.0572412,0.3756168,0.2411595,0.032171,-0.007
 0235,0.0125921,0.3827079,0.0133562,-0.0270573,0.0189356,0.3267805,0.25
 31298,-0.0295564,0.0382291,-0.0356608,0.3413584,0.0256209,0.0162998,0.
 0256406,0.3251309,0.3160582,-0.0280989,0.0493165,-0.0216571,0.3374105,
 0.010807,0.0689137,0.0118514,0.2817005,0.8891266,0.2810156,0.3423817,0
 .3765015,0.3434515,0.1494357,0.3747865,0.1141351,0.4405852,0.2412589,-
 0.0204547,-0.0288831,-0.0252356,0.323846,0.0047088,-0.0173247,0.011347
 ,0.3335723\Polar=42.0329877,-0.80268,31.997757,0.06647,-0.0747477,32.6
 526647\PG=C01 [X(H9O4)]\NImag=0\\0.47225778,0.11874104,0.15588055,-0.0
 0979027,-0.24881418,0.55874012,-0.00325232,-0.00232827,-0.00199829,0.4
 3415556,0.00226902,0.00210606,0.00131802,0.01635371,0.61281523,-0.0003
 8869,-0.00026488,0.00010934,-0.18235734,-0.15121362,0.23514429,-0.0006
 5910,-0.00026477,-0.00032483,-0.02474594,-0.00340083,0.02220339,0.4739
 6402,0.00004889,0.00015383,0.00002877,-0.00582046,0.00522974,0.0043949
 9,0.19296471,0.09031933,0.00035530,0.00021105,0.00042370,0.02648314,0.
 00219189,-0.00824616,0.10223952,0.01828028,0.63938763,-0.02151660,-0.0
 1196151,-0.01375457,-0.05789759,0.04998624,-0.00995720,-0.00327781,-0.
 00042401,0.00320934,0.46070396,-0.01002349,0.00145184,-0.00542088,0.04
 702731,-0.01648606,0.00624438,0.00205066,0.00089180,-0.00217824,-0.005
 44468,0.39851060,-0.01417442,-0.00728966,0.00006564,-0.01206649,0.0099
 3634,0.01124165,-0.00101176,-0.00028916,0.00137022,0.06485657,0.311368
 46,0.34196407,-0.34258463,-0.16498363,0.19630833,0.00014846,0.00008799
 ,-0.00006414,0.00008883,0.00001754,-0.00003944,0.00005693,-0.00067519,
 -0.00140683,0.33558965,-0.13879477,-0.07897352,0.10390025,0.00023989,-
 0.00025737,0.00010583,0.00003590,-0.00005115,-0.00000242,-0.00018871,-
 0.00005477,-0.00063577,0.15503023,0.08501330,0.14539823,0.09451903,-0.
 14976658,-0.00047301,0.00041684,-0.00021663,-0.00006060,0.00001054,-0.
 00001719,-0.00431182,-0.00141695,-0.00356118,-0.18208077,-0.11023171,0
 .16354343,0.00515546,0.00409635,0.00333078,-0.08076105,0.01212120,-0.0
 0571310,0.00577584,0.00123235,-0.00486978,0.00243920,-0.01525062,-0.00
 302456,-0.00011725,-0.00061178,0.00078731,0.06692429,-0.00493651,-0.00
 443916,-0.00299948,-0.00760787,-0.05037858,0.02155157,-0.00475095,-0.0
 0166589,0.00536786,-0.01875514,-0.03331463,-0.01487911,-0.00019969,0.0
 0042430,-0.00087641,0.01555698,0.07235182,0.00079164,0.00056628,0.0005
 2471,-0.01108978,0.02871673,-0.04405566,0.00238555,0.00109041,-0.00339
 007,-0.01252972,-0.00650856,-0.03360085,0.00003145,-0.00028993,0.00021
 984,0.00112502,-0.00268478,0.06960758,0.00118675,0.00039672,0.00079827
 ,-0.19058147,-0.01495941,0.14167804,-0.00754747,0.00062844,-0.01275328
 ,0.00554096,-0.00353058,0.00126380,-0.00018735,-0.00002519,0.00005241,
 -0.01734410,0.00603605,0.00598744,0.19806987,0.00023418,0.00006204,0.0
 0013060,0.01454956,-0.06553747,0.01294399,0.00309978,-0.00609256,-0.00
 629824,0.00482642,-0.00404703,0.00265798,-0.00003480,0.00001320,0.0000
 2552,-0.00355218,0.00986000,-0.01493895,0.01223101,0.07005420,-0.00078
 897,-0.00043859,-0.00081040,0.15024406,0.03833735,-0.15858722,-0.01128
 128,-0.00458351,-0.01174259,-0.00865816,0.00750001,-0.00362670,0.00011
 246,-0.00000221,-0.00000253,0.00742623,-0.01841109,0.01232072,-0.13164
 508,-0.02255325,0.15696426,-0.00019256,-0.00055443,0.00004786,-0.06936
 961,-0.06374349,0.03389952,-0.00205164,0.00095631,0.00151185,-0.008415
 55,0.00142596,-0.00151880,-0.00017352,0.00012291,-0.00012764,0.0216422
 5,0.01372455,-0.00143496,0.00299673,-0.02978242,-0.00197672,0.05651391
 ,-0.00035721,-0.00036591,-0.00016436,-0.07268247,-0.47949977,0.1054498
 0,0.00227587,-0.00032784,-0.00126431,-0.00105798,0.00216345,-0.0000859
 3,-0.00001207,0.00014425,-0.00004837,-0.00356603,-0.00987763,-0.001266
 30,-0.00110668,-0.00085742,-0.00243382,0.07540964,0.48816801,0.0002909
 1,-0.00005880,-0.00012149,0.03029969,0.07140069,-0.03025121,0.00082810
 ,-0.00075178,-0.00104634,0.00014566,-0.00018629,0.00007010,-0.00002983
 ,-0.00002159,0.00015386,0.00045846,0.00508383,-0.00360354,-0.00094850,
 0.02506319,-0.00234755,-0.03079394,-0.10044046,0.03638954,-0.00312262,
 -0.00026839,0.00006730,-0.00587755,0.00331049,-0.00312775,-0.00007621,
 -0.00021351,0.00000974,-0.08459275,0.10140611,0.08165928,-0.00060596,-
 0.00051237,-0.00070028,0.00815120,0.00023404,0.01435450,0.00039196,0.0
 0031761,-0.00029183,-0.00040468,-0.00007227,-0.00030578,0.07109278,0.0
 0030624,0.00028413,0.00066088,0.00016779,0.00015259,0.00112452,-0.0003
 9093,-0.00015506,0.00019161,0.07168908,-0.24641602,-0.23413462,-0.0002
 3498,-0.00007505,-0.00024318,0.00021314,-0.00528973,-0.00659731,0.0010
 4963,0.00036261,-0.00024305,0.00017363,-0.00007185,-0.00014311,-0.0810
 3172,0.26005956,-0.00007309,0.00047404,0.00066115,-0.00666563,0.002699
 01,-0.00201546,-0.00026896,0.00004240,0.00012380,0.05703499,-0.2449888
 5,-0.24719506,-0.00010519,-0.00000688,0.00012929,0.00952304,-0.0000466
 8,0.00644545,0.00016574,0.00013423,-0.00057102,-0.00006963,-0.00010987
 ,0.00040217,-0.06969274,0.24852720,0.25133423,0.00007854,-0.00000894,-
 0.00013395,-0.00696687,-0.00027092,0.00255419,-0.04846130,-0.01918782,
 0.03604400,-0.00065600,0.00054021,-0.00052428,-0.00001552,-0.00002036,
 0.00003606,0.00109319,-0.00135662,0.00125800,0.01155982,0.00057812,-0.
 00103758,-0.00028368,0.00017800,0.00033232,-0.00000995,0.00001987,0.00
 002400,0.04368194,-0.00007517,-0.00013839,-0.00005117,-0.00045696,0.00
 073028,-0.00013398,-0.01631254,-0.01018338,0.05334033,-0.00021308,-0.0
 0017137,0.00004660,-0.00000621,0.00003640,-0.00000572,0.00003068,0.000
 18869,-0.00002546,0.00092219,-0.00196437,-0.00064473,0.00033972,0.0002
 8550,0.00020237,0.00005230,0.00003475,-0.00006112,0.01667633,0.0103392
 3,-0.00010752,-0.00006561,-0.00014085,-0.00148017,-0.00022634,0.001255
 60,-0.01409165,0.02733269,-0.51514189,-0.00054213,0.00016208,-0.000191
 19,0.00000773,0.00000189,0.00000958,0.00087794,-0.00041326,-0.00000850
 ,0.00192326,0.00110442,-0.00328551,0.00013801,0.00001945,-0.00004739,0
 .00005242,-0.00002434,-0.00001567,0.00334173,-0.03402107,0.53053323,0.
 00012415,0.00005329,0.00002820,-0.00050476,0.00017478,0.00120075,-0.39
 421256,-0.17001662,-0.15152201,0.00030770,0.00000742,0.00001594,-0.000
 01806,-0.00001273,0.00001971,-0.00033259,0.00007258,0.00010414,-0.0020
 2599,-0.00219233,-0.00353989,-0.00006808,0.00001527,0.00027169,-0.0000
 7527,0.00001002,0.00006041,0.00011575,-0.00115601,0.00965298,0.3969185
 1,-0.00000463,-0.00004955,-0.00001390,0.00110210,0.00045862,-0.0011227
 7,-0.17595563,-0.07793885,-0.06922702,0.00009749,-0.00029441,0.0000047
 4,-0.00000608,0.00001899,-0.00000249,-0.00045634,0.00048083,0.00010655
 ,-0.00068507,-0.00120675,0.00219477,-0.00013361,0.00010929,-0.00039924
 ,0.00010447,0.00008881,-0.00000376,0.00274620,0.00061842,0.00598412,0.
 17315297,0.07765429,0.00007118,0.00001478,-0.00000558,0.00446165,-0.00
 007295,-0.00496552,-0.10138430,-0.04544837,-0.10085905,0.00034206,-0.0
 0028002,0.00005199,-0.00001411,-0.00000317,0.00001938,-0.00063601,0.00
 057558,-0.00031933,-0.00471774,0.00174011,0.00992185,0.00024599,-0.000
 22071,0.00021055,0.00006309,0.00005690,0.00007986,-0.04212531,-0.01875
 508,-0.01324357,0.14380234,0.06243970,0.10912495,0.00215075,0.00079698
 ,0.00421490,0.00582286,-0.00203253,-0.00002305,0.00115119,-0.00017701,
 -0.00076625,-0.29024211,-0.11537215,-0.11347219,-0.00067509,-0.0004456
 8,0.00529023,-0.01295688,0.00224277,-0.00093991,-0.00207895,-0.0002888
 7,0.00159128,-0.00021990,0.00096227,-0.00048648,0.01548398,0.00816525,
 0.01004654,-0.00003313,0.00018927,0.00026259,-0.00020125,0.00004467,-0
 .00008897,0.27838256,-0.00094132,-0.00909255,0.00306385,0.00955484,-0.
 00934588,0.00095699,0.00069237,-0.00011263,-0.00063121,-0.08500342,-0.
 10006363,-0.06625931,0.00116721,-0.00118248,0.00236754,-0.00979955,0.0
 2181792,0.00175360,-0.00106919,-0.00070170,0.00132552,0.00203355,0.000
 09750,0.00020072,-0.02315618,-0.00931081,-0.00641652,0.00009720,0.0001
 6875,0.00014492,-0.00011109,0.00003732,-0.00005199,0.10102886,0.103577
 48,0.00510622,0.00470607,-0.01507799,0.00401243,-0.00321163,0.00063906
 ,0.00065521,-0.00010992,-0.00070850,-0.07764702,-0.06439440,-0.0673457
 7,0.00361952,0.00170287,0.00702709,-0.00828757,0.00715717,-0.00403603,
 -0.00150343,0.00005031,0.00149379,0.00014514,0.00052892,0.00019793,-0.
 02187710,-0.00919728,-0.00926294,0.00018336,0.00010137,0.00021100,-0.0
 0008921,0.00003600,-0.00001986,0.09713381,0.06379196,0.08925083,-0.109
 62561,0.05628556,-0.17879373,-0.00016972,0.00010375,0.00009537,0.00005
 215,-0.00000881,0.00009786,-0.00245035,-0.00216097,-0.00059627,0.00849
 351,-0.01481736,0.03617018,0.00033045,-0.00026019,-0.00004335,0.000019
 24,0.00001394,-0.00015453,0.00002632,0.00001366,-0.00006228,-0.0003549
 3,-0.00013704,0.00002055,-0.00010280,0.00000948,-0.00003522,-0.0000275
 5,-0.00000655,-0.00001987,0.00341597,0.00550671,-0.00145134,0.10039332
 ,0.03353371,-0.06687937,0.14836159,-0.00009917,0.00001260,-0.00003680,
 -0.00004364,-0.00006734,0.00001841,-0.00355072,-0.00216978,-0.00044057
 ,0.00984967,-0.00505609,0.01548536,-0.00001419,-0.00015793,0.00007772,
 0.00011209,0.00005524,-0.00004741,0.00002767,0.00003243,0.00005046,-0.
 00017057,0.00033606,-0.00024320,0.00000872,0.00005548,0.00000105,0.000
 00246,0.00002297,0.00000522,0.00488616,0.00411070,-0.00116143,-0.04454
 219,0.06970502,-0.12669053,0.15644048,-0.39460177,0.00062976,-0.000292
 33,-0.00005208,0.00011161,0.00000265,-0.00015355,0.00181201,0.00009925
 ,0.00075709,-0.01633916,0.00548283,-0.01753837,-0.00099777,0.00057481,
 -0.00010432,-0.00030092,-0.00005991,0.00027290,-0.00006667,0.00003595,
 -0.00000664,-0.00021086,0.00002178,-0.00011581,0.00004747,0.00000767,0
 .00006516,-0.00000505,0.00000330,0.00000431,-0.00276250,-0.00024609,-0
 .00236862,0.14477262,-0.16207039,0.41384171\\-0.00012770,0.00000339,-0
 .00003975,-0.00001641,-0.00002458,-0.00002670,0.00008657,0.00005822,-0
 .00008882,-0.00008114,0.00004714,0.00003091,0.00007558,0.00003216,-0.0
 0002902,0.00002156,-0.00001311,0.00002032,0.00002267,0.00000448,0.0000
 2721,-0.00001143,0.00003059,-0.00000229,0.00002303,-0.00002832,-0.0000
 2113,-0.00002312,-0.00001826,0.00007981,-0.00007727,-0.00003855,-0.000
 00017,0.00007533,-0.00002285,-0.00002352,0.00003233,-0.00003031,0.0000
 7315\\\@


 ERROR IS THE FORCE THAT WELDS MEN TOGETHER....
 TRUTH IS COMMUNICATED TO MEN ONLY BY DEEDS OF TRUTH.
           TOLSTOI,MY RELIGION
 Job cpu time:  0 days  1 hours 22 minutes 57.2 seconds.
 File lengths (MBytes):  RWF=   4016 Int=      0 D2E=      0 Chk=      8 Scr=      1
 Normal termination of Gaussian 03 at Tue Aug 14 20:16:36 2007.
