 Entering Gaussian System, Link 0=g03
 Initial command:
 /usr/local/g03-em64t/g03/l1.exe /usr/scratch/NQC-pW4-DFT.std.lm.0.com/Gau-23736.inp -scrdir=/usr/scratch/NQC-pW4-DFT.std.lm.0.com/
 Entering Link 1 = /usr/local/g03-em64t/g03/l1.exe PID=     23737.
  
 Copyright (c) 1988,1990,1992,1993,1995,1998,2003,2004, Gaussian, Inc.
                  All Rights Reserved.
  
 This is the Gaussian(R) 03 program.  It is based on the
 the Gaussian(R) 98 system (copyright 1998, Gaussian, Inc.),
 the Gaussian(R) 94 system (copyright 1995, Gaussian, Inc.),
 the Gaussian 92(TM) system (copyright 1992, Gaussian, Inc.),
 the Gaussian 90(TM) system (copyright 1990, Gaussian, Inc.),
 the Gaussian 88(TM) system (copyright 1988, Gaussian, Inc.),
 the Gaussian 86(TM) system (copyright 1986, Carnegie Mellon
 University), and the Gaussian 82(TM) system (copyright 1983,
 Carnegie Mellon University). Gaussian is a federally registered
 trademark of Gaussian, Inc.
  
 This software contains proprietary and confidential information,
 including trade secrets, belonging to Gaussian, Inc.
  
 This software is provided under written license and may be
 used, copied, transmitted, or stored only in accord with that
 written license.
  
 The following legend is applicable only to US Government
 contracts under FAR:
  
                    RESTRICTED RIGHTS LEGEND
  
 Use, reproduction and disclosure by the US Government is
 subject to restrictions as set forth in subparagraphs (a)
 and (c) of the Commercial Computer Software - Restricted
 Rights clause in FAR 52.227-19.
  
 Gaussian, Inc.
 340 Quinnipiac St., Bldg. 40, Wallingford CT 06492
  
  
 ---------------------------------------------------------------
 Warning -- This program may not be used in any manner that
 competes with the business of Gaussian, Inc. or will provide
 assistance to any competitor of Gaussian, Inc.  The licensee
 of this program is prohibited from giving any competitor of
 Gaussian, Inc. access to this program.  By using this program,
 the user acknowledges that Gaussian, Inc. is engaged in the
 business of creating and licensing software in the field of
 computational chemistry and represents and warrants to the
 licensee that it is not a competitor of Gaussian, Inc. and that
 it will not use this program in any manner prohibited above.
 ---------------------------------------------------------------
  

 Cite this work as:
 Gaussian 03, Revision D.01,
 M. J. Frisch, G. W. Trucks, H. B. Schlegel, G. E. Scuseria, 
 M. A. Robb, J. R. Cheeseman, J. A. Montgomery, Jr., T. Vreven, 
 K. N. Kudin, J. C. Burant, J. M. Millam, S. S. Iyengar, J. Tomasi, 
 V. Barone, B. Mennucci, M. Cossi, G. Scalmani, N. Rega, 
 G. A. Petersson, H. Nakatsuji, M. Hada, M. Ehara, K. Toyota, 
 R. Fukuda, J. Hasegawa, M. Ishida, T. Nakajima, Y. Honda, O. Kitao, 
 H. Nakai, M. Klene, X. Li, J. E. Knox, H. P. Hratchian, J. B. Cross, 
 V. Bakken, C. Adamo, J. Jaramillo, R. Gomperts, R. E. Stratmann, 
 O. Yazyev, A. J. Austin, R. Cammi, C. Pomelli, J. W. Ochterski, 
 P. Y. Ayala, K. Morokuma, G. A. Voth, P. Salvador, J. J. Dannenberg, 
 V. G. Zakrzewski, S. Dapprich, A. D. Daniels, M. C. Strain, 
 O. Farkas, D. K. Malick, A. D. Rabuck, K. Raghavachari, 
 J. B. Foresman, J. V. Ortiz, Q. Cui, A. G. Baboul, S. Clifford, 
 J. Cioslowski, B. B. Stefanov, G. Liu, A. Liashenko, P. Piskorz, 
 I. Komaromi, R. L. Martin, D. J. Fox, T. Keith, M. A. Al-Laham, 
 C. Y. Peng, A. Nanayakkara, M. Challacombe, P. M. W. Gill, 
 B. Johnson, W. Chen, M. W. Wong, C. Gonzalez, and J. A. Pople, 
 Gaussian, Inc., Wallingford CT, 2004.
 
 ******************************************
 Gaussian 03:  AM64L-G03RevD.01 13-Oct-2005
                14-Aug-2007 
 ******************************************
 %chk=pW4-DFT.std.lm.0.chk
 %mem=128MW
 %nproc=2
 Will use up to    2 processors via shared memory.
 --------------------------
 # freq opt mp2/aug-cc-pvDZ
 --------------------------
 1/18=20,38=1/1,3;
 2/9=110,17=6,18=5,40=1/2;
 3/5=16,7=10,11=9,16=1,25=1,30=1/1,2,3;
 4//1;
 5/5=2,38=5/2;
 8/6=4,10=1/1;
 9/15=2,16=-3/6;
 10/5=1/2;
 6/7=2,8=2,9=2,10=2/1;
 7/12=2/1,2,3,16;
 1/18=20/3(3);
 2/9=110/2;
 6/7=2,8=2,9=2,10=2/1;
 99//99;
 2/9=110/2;
 3/5=16,7=10,11=9,16=1,25=1,30=1/1,2,3;
 4/5=5,16=3/1;
 5/5=2,38=5/2;
 8/6=4,10=1/1;
 9/15=2,16=-3/6;
 10/5=1/2;
 7/12=2/1,2,3,16;
 1/18=20/3(-8);
 2/9=110/2;
 6/7=2,8=2,9=2,10=2/1;
 99//99;
 -------------------
 Title Card Required
 -------------------
 Symbolic Z-matrix:
 Charge =  1 Multiplicity = 1
 O                    -2.16299  -1.25564  -0.11022 
 O                     0.00026   2.39399   0.73084 
 O                     2.16286  -1.25564  -0.11022 
 O                    -0.00013   0.1173   -0.5104 
 H                    -2.24189  -2.06234   0.42504 
 H                    -0.51532   2.61696   1.52326 
 H                     0.10443   3.21422   0.22036 
 H                    -2.82328  -1.32044  -0.82014 
 H                     2.75208  -1.18699   0.65891 
 H                     2.71436  -1.51068  -0.86856 
 H                     0.86835  -0.3849   -0.32434 
 H                    -0.04606   1.00139  -0.00318 
 H                    -0.82173  -0.46357  -0.34114 
 

 GradGradGradGradGradGradGradGradGradGradGradGradGradGradGradGradGradGrad
 Berny optimization.
 Initialization pass.
                           ----------------------------
                           !    Initial Parameters    !
                           ! (Angstroms and Degrees)  !
 --------------------------                            --------------------------
 ! Name  Definition              Value          Derivative Info.                !
 --------------------------------------------------------------------------------
 ! R1    R(1,5)                  0.9713         estimate D2E/DX2                !
 ! R2    R(1,8)                  0.9717         estimate D2E/DX2                !
 ! R3    R(1,13)                 1.5747         estimate D2E/DX2                !
 ! R4    R(2,6)                  0.9713         estimate D2E/DX2                !
 ! R5    R(2,7)                  0.9717         estimate D2E/DX2                !
 ! R6    R(2,12)                 1.5749         estimate D2E/DX2                !
 ! R7    R(3,9)                  0.9713         estimate D2E/DX2                !
 ! R8    R(3,10)                 0.9717         estimate D2E/DX2                !
 ! R9    R(3,11)                 1.5747         estimate D2E/DX2                !
 ! R10   R(4,11)                 1.0203         estimate D2E/DX2                !
 ! R11   R(4,12)                 1.0203         estimate D2E/DX2                !
 ! R12   R(4,13)                 1.0203         estimate D2E/DX2                !
 ! A1    A(5,1,8)              106.9794         estimate D2E/DX2                !
 ! A2    A(5,1,13)             124.5928         estimate D2E/DX2                !
 ! A3    A(8,1,13)             120.3443         estimate D2E/DX2                !
 ! A4    A(6,2,7)              106.9608         estimate D2E/DX2                !
 ! A5    A(6,2,12)             124.5837         estimate D2E/DX2                !
 ! A6    A(7,2,12)             120.3124         estimate D2E/DX2                !
 ! A7    A(9,3,10)             106.9909         estimate D2E/DX2                !
 ! A8    A(9,3,11)             124.559          estimate D2E/DX2                !
 ! A9    A(10,3,11)            120.3686         estimate D2E/DX2                !
 ! A10   A(11,4,12)            111.9717         estimate D2E/DX2                !
 ! A11   A(11,4,13)            112.0204         estimate D2E/DX2                !
 ! A12   A(12,4,13)            111.998          estimate D2E/DX2                !
 ! A13   A(3,11,4)             175.3122         estimate D2E/DX2                !
 ! A14   A(2,12,4)             175.2678         estimate D2E/DX2                !
 ! A15   A(1,13,4)             175.2292         estimate D2E/DX2                !
 ! D1    D(5,1,13,4)          -158.8303         estimate D2E/DX2                !
 ! D2    D(8,1,13,4)            56.6039         estimate D2E/DX2                !
 ! D3    D(6,2,12,4)          -157.3785         estimate D2E/DX2                !
 ! D4    D(7,2,12,4)            58.1808         estimate D2E/DX2                !
 ! D5    D(9,3,11,4)          -154.1855         estimate D2E/DX2                !
 ! D6    D(10,3,11,4)           61.2399         estimate D2E/DX2                !
 ! D7    D(12,4,11,3)          176.4098         estimate D2E/DX2                !
 ! D8    D(13,4,11,3)           49.6211         estimate D2E/DX2                !
 ! D9    D(11,4,12,2)           51.4557         estimate D2E/DX2                !
 ! D10   D(13,4,12,2)          178.2565         estimate D2E/DX2                !
 ! D11   D(11,4,13,1)          177.6426         estimate D2E/DX2                !
 ! D12   D(12,4,13,1)           50.8681         estimate D2E/DX2                !
 --------------------------------------------------------------------------------
 Trust Radius=3.00D-01 FncErr=1.00D-07 GrdErr=1.00D-07
 Number of steps in this run=  49 maximum allowed number of steps= 100.
 GradGradGradGradGradGradGradGradGradGradGradGradGradGradGradGradGradGrad

                          Input orientation:                          
 ---------------------------------------------------------------------
 Center     Atomic     Atomic              Coordinates (Angstroms)
 Number     Number      Type              X           Y           Z
 ---------------------------------------------------------------------
    1          8             0       -2.162990   -1.255642   -0.110217
    2          8             0        0.000256    2.393989    0.730837
    3          8             0        2.162861   -1.255642   -0.110217
    4          8             0       -0.000126    0.117295   -0.510404
    5          1             0       -2.241891   -2.062343    0.425041
    6          1             0       -0.515318    2.616957    1.523263
    7          1             0        0.104427    3.214221    0.220363
    8          1             0       -2.823275   -1.320435   -0.820135
    9          1             0        2.752075   -1.186986    0.658909
   10          1             0        2.714364   -1.510684   -0.868556
   11          1             0        0.868349   -0.384904   -0.324337
   12          1             0       -0.046055    1.001392   -0.003183
   13          1             0       -0.821731   -0.463570   -0.341139
 ---------------------------------------------------------------------
                    Distance matrix (angstroms):
                    1          2          3          4          5
     1  O    0.000000
     2  O    4.325137   0.000000
     3  O    4.325851   4.324817   0.000000
     4  O    2.592891   2.593071   2.592994   0.000000
     5  H    0.971336   4.997963   4.509890   3.263647   0.000000
     6  H    4.514433   0.971324   4.983766   3.263362   5.107151
     7  H    5.022961   0.971708   4.932151   3.183693   5.778341
     8  H    0.971678   4.916786   5.036838   3.183264   1.561697
     9  H    4.975352   4.516754   0.971309   3.262369   5.075494
    10  H    4.942540   5.017062   0.971741   3.185443   5.151911
    11  H    3.161178   3.096647   1.574736   1.020330   3.612335
    12  H    3.096300   1.574883   3.159900   1.020299   3.793619
    13  H    1.574700   3.160766   3.096529   1.020338   2.271555
                    6          7          8          9         10
     6  H    0.000000
     7  H    1.561524   0.000000
     8  H    5.130423   5.497016   0.000000
     9  H    5.088511   5.154899   5.769741   0.000000
    10  H    5.760995   5.506564   5.541118   1.561842   0.000000
    11  H    3.786731   3.719405   3.840459   2.271240   2.229647
    12  H    2.271628   2.229177   3.710962   3.613433   3.831359
    13  H    3.613797   3.833954   2.229312   3.780941   3.725397
                   11         12         13
    11  H    0.000000
    12  H    1.691476   0.000000
    13  H    1.691993   1.691745   0.000000
 Stoichiometry    H9O4(1+)
 Framework group  C1[X(H9O4)]
 Deg. of freedom    33
 Full point group                 C1
 Largest Abelian subgroup         C1      NOp   1
 Largest concise Abelian subgroup C1      NOp   1
                         Standard orientation:                         
 ---------------------------------------------------------------------
 Center     Atomic     Atomic              Coordinates (Angstroms)
 Number     Number      Type              X           Y           Z
 ---------------------------------------------------------------------
    1          8             0       -2.085325   -1.373933    0.163849
    2          8             0       -0.146552    2.492327    0.163582
    3          8             0        2.233007   -1.119006    0.161166
    4          8             0       -0.000210   -0.000464   -0.535412
    5          1             0       -2.124400   -2.043500    0.866449
    6          1             0       -0.684062    2.856300    0.886131
    7          1             0       -0.083343    3.182096   -0.517917
    8          1             0       -2.731777   -1.634848   -0.513042
    9          1             0        2.807543   -0.845263    0.894933
   10          1             0        2.807800   -1.504431   -0.520994
   11          1             0        0.893319   -0.396168   -0.241989
   12          1             0       -0.103354    0.970480   -0.239373
   13          1             0       -0.789083   -0.576057   -0.239671
 ---------------------------------------------------------------------
 Rotational constants (GHZ):      2.6804220      2.6777886      1.4081949
 Standard basis: Aug-CC-pVDZ (5D, 7F)
 There are   173 symmetry adapted basis functions of A   symmetry.
 Integral buffers will be    131072 words long.
 Raffenetti 1 integral format.
 Two-electron integral symmetry is turned on.
   173 basis functions,   271 primitive gaussians,   181 cartesian basis functions
    20 alpha electrons       20 beta electrons
       nuclear repulsion energy       142.0443497055 Hartrees.
 NAtoms=   13 NActive=   13 NUniq=   13 SFac= 7.50D-01 NAtFMM=   80 NAOKFM=F Big=F
 One-electron integrals computed using PRISM.
 NBasis=   173 RedAO= T  NBF=   173
 NBsUse=   173 1.00D-06 NBFU=   173
 Harris functional with IExCor=  205 diagonalized for initial guess.
 ExpMin= 2.97D-02 ExpMax= 1.17D+04 ExpMxC= 4.01D+02 IAcc=3 IRadAn=         5 AccDes= 0.00D+00
 HarFok:  IExCor= 205 AccDes= 0.00D+00 IRadAn=         5 IDoV=1
 ScaDFX=  1.000000  1.000000  1.000000  1.000000
 Initial guess orbital symmetries:
       Occupied  (A) (A) (A) (A) (A) (A) (A) (A) (A) (A) (A) (A)
                 (A) (A) (A) (A) (A) (A) (A) (A)
       Virtual   (A) (A) (A) (A) (A) (A) (A) (A) (A) (A) (A) (A)
                 (A) (A) (A) (A) (A) (A) (A) (A) (A) (A) (A) (A)
                 (A) (A) (A) (A) (A) (A) (A) (A) (A) (A) (A) (A)
                 (A) (A) (A) (A) (A) (A) (A) (A) (A) (A) (A) (A)
                 (A) (A) (A) (A) (A) (A) (A) (A) (A) (A) (A) (A)
                 (A) (A) (A) (A) (A) (A) (A) (A) (A) (A) (A) (A)
                 (A) (A) (A) (A) (A) (A) (A) (A) (A) (A) (A) (A)
                 (A) (A) (A) (A) (A) (A) (A) (A) (A) (A) (A) (A)
                 (A) (A) (A) (A) (A) (A) (A) (A) (A) (A) (A) (A)
                 (A) (A) (A) (A) (A) (A) (A) (A) (A) (A) (A) (A)
                 (A) (A) (A) (A) (A) (A) (A) (A) (A) (A) (A) (A)
                 (A) (A) (A) (A) (A) (A) (A) (A) (A) (A) (A) (A)
                 (A) (A) (A) (A) (A) (A) (A) (A) (A)
 The electronic state of the initial guess is 1-A.
 Requested convergence on RMS density matrix=1.00D-08 within 128 cycles.
 Requested convergence on MAX density matrix=1.00D-06.
 Requested convergence on             energy=1.00D-06.
 No special actions if energy rises.
 SCF Done:  E(RHF) =  -304.548186318     A.U. after   10 cycles
             Convg  =    0.6869D-08             -V/T =  2.0020
             S**2   =   0.0000
 ExpMin= 2.97D-02 ExpMax= 1.17D+04 ExpMxC= 4.01D+02 IAcc=3 IRadAn=         5 AccDes= 0.00D+00
 HarFok:  IExCor= 205 AccDes= 0.00D+00 IRadAn=         5 IDoV=1
 ScaDFX=  1.000000  1.000000  1.000000  1.000000
 Range of M.O.s used for correlation:     5   173
 NBasis=   173 NAE=    20 NBE=    20 NFC=     4 NFV=     0
 NROrb=    169 NOA=    16 NOB=    16 NVA=   153 NVB=   153

 **** Warning!!: The largest alpha MO coefficient is  0.11853856D+02

 Fully direct method using O(ONN) memory.
 JobTyp=1 Pass  1:  I=   5 to  20 NPSUse=  2 ParTrn=T ParDer=T DoDerP=T.
 Spin components of T(2) and E(2):
     alpha-alpha T2 =       0.3067936488D-01 E2=     -0.1139478716D+00
     alpha-beta  T2 =       0.1714808269D+00 E2=     -0.6602218602D+00
     beta-beta   T2 =       0.3067936488D-01 E2=     -0.1139478716D+00
 ANorm=    0.1110333084D+01
 E2 =    -0.8881176035D+00 EUMP2 =    -0.30543630392120D+03
 DoAtom=TTTTTTTTTTTTT
          Differentiating once with respect to electric field.
                with respect to dipole field.
          Differentiating once with respect to nuclear coordinates.
          There are   1 degrees of freedom in the 1st order CPHF.
 Petite list used in FoFDir.
 MinBra= 0 MaxBra= 2 Meth= 1.
 IRaf=       0 NMat=   1 IRICut=       1 DoRegI=T DoRafI=F ISym2E= 1 JSym2E=1.
     1 vectors were produced by pass  0.
 AX will form   1 AO Fock derivatives at one time.
     1 vectors were produced by pass  1.
     1 vectors were produced by pass  2.
     1 vectors were produced by pass  3.
     1 vectors were produced by pass  4.
     1 vectors were produced by pass  5.
     1 vectors were produced by pass  6.
     1 vectors were produced by pass  7.
     1 vectors were produced by pass  8.
     1 vectors were produced by pass  9.
     1 vectors were produced by pass 10.
     1 vectors were produced by pass 11.
 Inv2:  IOpt= 1 Iter= 1 AM= 3.00D-16 Conv= 1.00D-12.
 Inverted reduced A of dimension   12 with in-core refinement.
 End of Minotr Frequency-dependent properties file   721 does not exist.

 **********************************************************************

            Population analysis using the SCF density.

 **********************************************************************

 Orbital symmetries:
       Occupied  (A) (A) (A) (A) (A) (A) (A) (A) (A) (A) (A) (A)
                 (A) (A) (A) (A) (A) (A) (A) (A)
       Virtual   (A) (A) (A) (A) (A) (A) (A) (A) (A) (A) (A) (A)
                 (A) (A) (A) (A) (A) (A) (A) (A) (A) (A) (A) (A)
                 (A) (A) (A) (A) (A) (A) (A) (A) (A) (A) (A) (A)
                 (A) (A) (A) (A) (A) (A) (A) (A) (A) (A) (A) (A)
                 (A) (A) (A) (A) (A) (A) (A) (A) (A) (A) (A) (A)
                 (A) (A) (A) (A) (A) (A) (A) (A) (A) (A) (A) (A)
                 (A) (A) (A) (A) (A) (A) (A) (A) (A) (A) (A) (A)
                 (A) (A) (A) (A) (A) (A) (A) (A) (A) (A) (A) (A)
                 (A) (A) (A) (A) (A) (A) (A) (A) (A) (A) (A) (A)
                 (A) (A) (A) (A) (A) (A) (A) (A) (A) (A) (A) (A)
                 (A) (A) (A) (A) (A) (A) (A) (A) (A) (A) (A) (A)
                 (A) (A) (A) (A) (A) (A) (A) (A) (A) (A) (A) (A)
                 (A) (A) (A) (A) (A) (A) (A) (A) (A)
 The electronic state is 1-A.
 Alpha  occ. eigenvalues --  -20.81191 -20.76308 -20.76308 -20.76304  -1.60973
 Alpha  occ. eigenvalues --   -1.53965  -1.53964  -1.53455  -0.96512  -0.96503
 Alpha  occ. eigenvalues --   -0.90232  -0.90176  -0.90174  -0.81339  -0.76379
 Alpha  occ. eigenvalues --   -0.76376  -0.75521  -0.70027  -0.69756  -0.69749
 Alpha virt. eigenvalues --   -0.09145  -0.06917  -0.06909  -0.05509  -0.03713
 Alpha virt. eigenvalues --   -0.03675  -0.02436  -0.01309  -0.01246   0.04790
 Alpha virt. eigenvalues --    0.05490   0.06322   0.06389   0.08914   0.08971
 Alpha virt. eigenvalues --    0.09539   0.10232   0.10247   0.10280   0.12149
 Alpha virt. eigenvalues --    0.12198   0.12850   0.14440   0.14512   0.14911
 Alpha virt. eigenvalues --    0.17310   0.18464   0.18689   0.20471   0.20689
 Alpha virt. eigenvalues --    0.23406   0.24298   0.24403   0.26088   0.29794
 Alpha virt. eigenvalues --    0.30672   0.30674   0.32699   0.32851   0.36285
 Alpha virt. eigenvalues --    0.38517   0.38561   0.39175   0.40938   0.41159
 Alpha virt. eigenvalues --    0.41272   0.43340   0.44025   0.44061   0.47091
 Alpha virt. eigenvalues --    0.47112   0.49662   0.51496   0.52252   0.52285
 Alpha virt. eigenvalues --    0.53405   0.53460   0.54289   0.65377   0.65470
 Alpha virt. eigenvalues --    0.70897   0.71213   0.72904   0.73065   0.78469
 Alpha virt. eigenvalues --    0.79985   0.80145   0.81185   0.82107   0.82210
 Alpha virt. eigenvalues --    0.97906   0.98374   0.98426   1.03081   1.03112
 Alpha virt. eigenvalues --    1.07783   1.08769   1.08876   1.12715   1.15250
 Alpha virt. eigenvalues --    1.15356   1.23641   1.26094   1.26211   1.28928
 Alpha virt. eigenvalues --    1.33330   1.33426   1.33671   1.39714   1.39795
 Alpha virt. eigenvalues --    1.47141   1.47271   1.50297   1.57441   1.77418
 Alpha virt. eigenvalues --    1.77498   1.77712   1.81580   1.85350   1.85419
 Alpha virt. eigenvalues --    1.85726   1.88838   1.88986   1.94877   1.97522
 Alpha virt. eigenvalues --    1.97557   1.99277   2.04538   2.04866   2.21540
 Alpha virt. eigenvalues --    2.29509   2.29528   2.31308   2.34598   2.34851
 Alpha virt. eigenvalues --    2.38069   2.43363   2.43403   2.45039   2.48219
 Alpha virt. eigenvalues --    2.48264   2.61824   2.61955   2.70063   2.73802
 Alpha virt. eigenvalues --    2.74032   2.80036   2.83053   2.83229   2.91570
 Alpha virt. eigenvalues --    2.96722   2.96765   3.00970   3.52643   3.52672
 Alpha virt. eigenvalues --    3.52956   3.55102   3.55205   3.57391   3.57397
 Alpha virt. eigenvalues --    3.57925   3.61202   3.61502   3.61588   3.90407
 Alpha virt. eigenvalues --    3.90431   3.90951   4.07955   4.13389   4.14036
 Alpha virt. eigenvalues --    4.14078   4.26260   4.26281
          Condensed to atoms (all electrons):
              1          2          3          4          5          6
     1  O    7.893979   0.001886   0.001856  -0.048383   0.363032  -0.000350
     2  O    0.001886   7.894460   0.001828  -0.048180  -0.000077   0.362566
     3  O    0.001856   0.001828   7.895413  -0.048010  -0.000348  -0.000074
     4  O   -0.048383  -0.048180  -0.048010   7.744804  -0.000299  -0.000277
     5  H    0.363032  -0.000077  -0.000348  -0.000299   0.458868   0.000034
     6  H   -0.000350   0.362566  -0.000074  -0.000277   0.000034   0.459055
     7  H   -0.000147   0.370552   0.000339  -0.000234  -0.000079  -0.043611
     8  H    0.370324   0.000347  -0.000166  -0.000218  -0.043649   0.000015
     9  H   -0.000060  -0.000349   0.362113  -0.000239   0.000032   0.000034
    10  H    0.000311  -0.000145   0.370637  -0.000241   0.000020  -0.000082
    11  H   -0.013704  -0.000673  -0.059337   0.267825  -0.001001   0.000603
    12  H   -0.000804  -0.059054  -0.013900   0.267947   0.000613   0.001221
    13  H   -0.058901  -0.013957  -0.000560   0.267828   0.001152  -0.000996
              7          8          9         10         11         12
     1  O   -0.000147   0.370324  -0.000060   0.000311  -0.013704  -0.000804
     2  O    0.370552   0.000347  -0.000349  -0.000145  -0.000673  -0.059054
     3  O    0.000339  -0.000166   0.362113   0.370637  -0.059337  -0.013900
     4  O   -0.000234  -0.000218  -0.000239  -0.000241   0.267825   0.267947
     5  H   -0.000079  -0.043649   0.000032   0.000020  -0.001001   0.000613
     6  H   -0.043611   0.000015   0.000034  -0.000082   0.000603   0.001221
     7  H    0.465410  -0.000080   0.000013  -0.000077   0.001393  -0.005259
     8  H   -0.000080   0.465371  -0.000078  -0.000079  -0.000199   0.001389
     9  H    0.000013  -0.000078   0.459059  -0.043593   0.001277  -0.000963
    10  H   -0.000077  -0.000079  -0.043593   0.465428  -0.005335  -0.000212
    11  H    0.001393  -0.000199   0.001277  -0.005335   0.314603  -0.024463
    12  H   -0.005259   0.001389  -0.000963  -0.000212  -0.024463   0.315029
    13  H   -0.000212  -0.005190   0.000574   0.001408  -0.024110  -0.024358
             13
     1  O   -0.058901
     2  O   -0.013957
     3  O   -0.000560
     4  O    0.267828
     5  H    0.001152
     6  H   -0.000996
     7  H   -0.000212
     8  H   -0.005190
     9  H    0.000574
    10  H    0.001408
    11  H   -0.024110
    12  H   -0.024358
    13  H    0.314818
 Mulliken atomic charges:
              1
     1  O   -0.509038
     2  O   -0.509202
     3  O   -0.509790
     4  O   -0.402322
     5  H    0.221701
     6  H    0.221861
     7  H    0.211994
     8  H    0.212215
     9  H    0.222181
    10  H    0.211961
    11  H    0.543120
    12  H    0.542815
    13  H    0.542504
 Sum of Mulliken charges=   1.00000
 Atomic charges with hydrogens summed into heavy atoms:
              1
     1  O   -0.075122
     2  O   -0.075346
     3  O   -0.075649
     4  O    1.226117
     5  H    0.000000
     6  H    0.000000
     7  H    0.000000
     8  H    0.000000
     9  H    0.000000
    10  H    0.000000
    11  H    0.000000
    12  H    0.000000
    13  H    0.000000
 Sum of Mulliken charges=   1.00000
 Electronic spatial extent (au):  <R**2>=   783.6185
 Charge=     1.0000 electrons
 Dipole moment (field-independent basis, Debye):
    X=    -0.0155    Y=     0.0173    Z=     0.5132  Tot=     0.5138
 Quadrupole moment (field-independent basis, Debye-Ang):
   XX=    -0.0783   YY=    -0.2893   ZZ=   -20.4775
   XY=    -0.0436   XZ=     0.1074   YZ=    -0.0856
 Traceless Quadrupole moment (field-independent basis, Debye-Ang):
   XX=     6.8701   YY=     6.6590   ZZ=   -13.5291
   XY=    -0.0436   XZ=     0.1074   YZ=    -0.0856
 Octapole moment (field-independent basis, Debye-Ang**2):
  XXX=    21.7978  YYY=    41.3445  ZZZ=     4.6679  XYY=   -22.4921
  XXY=   -41.2489  XXZ=    -0.3077  XZZ=     0.3967  YZZ=     0.1155
  YYZ=     0.3932  XYZ=    -0.0972
 Hexadecapole moment (field-independent basis, Debye-Ang**3):
 XXXX=  -167.8769 YYYY=  -170.2490 ZZZZ=   -35.0434 XXXY=    -0.1849
 XXXZ=    25.8703 YYYX=     0.4623 YYYZ=   -10.8332 ZZZX=     0.4034
 ZZZY=     0.0601 XXYY=   -57.6438 XXZZ=   -43.8546 YYZZ=   -43.8226
 XXYZ=     9.7939 YYXZ=   -25.4372 ZZXY=    -0.6223
 N-N= 1.420443497055D+02 E-N=-9.988166869340D+02  KE= 3.039357686360D+02
 ***** Axes restored to original set *****
 -------------------------------------------------------------------
 Center     Atomic                   Forces (Hartrees/Bohr)
 Number     Number              X              Y              Z
 -------------------------------------------------------------------
    1          8           0.000426617   -0.000105644   -0.000825693
    2          8          -0.000550062   -0.000015274   -0.000860268
    3          8           0.000058225    0.000763861   -0.000716547
    4          8           0.000059702   -0.000893354    0.004065705
    5          1          -0.000938696    0.002905133   -0.003415380
    6          1           0.002100434    0.000705401   -0.003976204
    7          1          -0.001527903   -0.002507755    0.003573684
    8          1           0.002270559   -0.001597480    0.003707453
    9          1          -0.001123237   -0.000693615   -0.004382697
   10          1          -0.000726479    0.001110951    0.004481897
   11          1          -0.003935353    0.001931830   -0.000044601
   12          1           0.000296467   -0.004088868   -0.001516096
   13          1           0.003589728    0.002484813   -0.000091253
 -------------------------------------------------------------------
 Cartesian Forces:  Max     0.004481897 RMS     0.002293231

 GradGradGradGradGradGradGradGradGradGradGradGradGradGradGradGradGradGrad
 Berny optimization.
 Internal  Forces:  Max     0.006527444 RMS     0.002640022
 Search for a local minimum.
 Step number   1 out of a maximum of  49
 All quantities printed in internal units (Hartrees-Bohrs-Radians)
 Second derivative matrix not updated -- first step.
     Eigenvalues ---    0.00230   0.00230   0.00230   0.00759   0.00759
     Eigenvalues ---    0.00760   0.02284   0.02284   0.02298   0.03592
     Eigenvalues ---    0.09596   0.09599   0.09600   0.14058   0.14061
     Eigenvalues ---    0.16000   0.16000   0.16000   0.16000   0.16000
     Eigenvalues ---    0.16000   0.25000   0.25000   0.25000   0.44284
     Eigenvalues ---    0.44285   0.44290   0.53023   0.53030   0.53036
     Eigenvalues ---    0.53105   0.53107   0.531101000.000001000.00000
     Eigenvalues --- 1000.000001000.000001000.000001000.00000
 RFO step:  Lambda=-9.11221348D-04.
 Linear search not attempted -- first point.
 Iteration  1 RMS(Cart)=  0.03540318 RMS(Int)=  0.00101831
 Iteration  2 RMS(Cart)=  0.00101218 RMS(Int)=  0.00011488
 Iteration  3 RMS(Cart)=  0.00000143 RMS(Int)=  0.00011487
 Iteration  4 RMS(Cart)=  0.00000000 RMS(Int)=  0.00011487
 Variable       Old X    -DE/DX   Delta X   Delta X   Delta X     New X
                                 (Linear)    (Quad)   (Total)
    R1        1.83556  -0.00422   0.00000  -0.00793  -0.00793   1.82763
    R2        1.83621  -0.00415   0.00000  -0.00780  -0.00780   1.82840
    R3        2.97575  -0.00218   0.00000  -0.02250  -0.02250   2.95325
    R4        1.83554  -0.00420   0.00000  -0.00789  -0.00789   1.82765
    R5        1.83626  -0.00416   0.00000  -0.00783  -0.00783   1.82843
    R6        2.97610  -0.00220   0.00000  -0.02266  -0.02266   2.95344
    R7        1.83551  -0.00420   0.00000  -0.00790  -0.00790   1.82761
    R8        1.83632  -0.00420   0.00000  -0.00791  -0.00791   1.82841
    R9        2.97582  -0.00221   0.00000  -0.02280  -0.02280   2.95302
   R10        1.92814  -0.00653   0.00000  -0.01471  -0.01471   1.91344
   R11        1.92809  -0.00651   0.00000  -0.01468  -0.01468   1.91341
   R12        1.92816  -0.00651   0.00000  -0.01467  -0.01467   1.91349
    A1        1.86714  -0.00229   0.00000  -0.02202  -0.02230   1.84485
    A2        2.17456   0.00080   0.00000  -0.00169  -0.00192   2.17264
    A3        2.10040   0.00123   0.00000   0.00085   0.00061   2.10102
    A4        1.86682  -0.00225   0.00000  -0.02120  -0.02142   1.84539
    A5        2.17440   0.00079   0.00000  -0.00122  -0.00141   2.17299
    A6        2.09985   0.00125   0.00000   0.00150   0.00131   2.10116
    A7        1.86734  -0.00230   0.00000  -0.02171  -0.02195   1.84540
    A8        2.17397   0.00082   0.00000  -0.00123  -0.00143   2.17254
    A9        2.10083   0.00125   0.00000   0.00132   0.00112   2.10195
   A10        1.95427  -0.00010   0.00000  -0.00304  -0.00306   1.95122
   A11        1.95512  -0.00014   0.00000  -0.00331  -0.00333   1.95179
   A12        1.95473  -0.00012   0.00000  -0.00316  -0.00318   1.95156
   A13        3.05978  -0.00024   0.00000  -0.00095  -0.00095   3.05882
   A14        3.05900  -0.00019   0.00000  -0.00076  -0.00076   3.05824
   A15        3.05833  -0.00014   0.00000  -0.00054  -0.00054   3.05778
    D1       -2.77211  -0.00049   0.00000   0.01704   0.01717  -2.75494
    D2        0.98792   0.00077   0.00000   0.06983   0.06970   1.05763
    D3       -2.74677  -0.00048   0.00000   0.00523   0.00533  -2.74144
    D4        1.01545   0.00067   0.00000   0.05370   0.05360   1.06904
    D5       -2.69105  -0.00053   0.00000  -0.00477  -0.00466  -2.69570
    D6        1.06884   0.00066   0.00000   0.04540   0.04529   1.11413
    D7        3.07893  -0.00009   0.00000   0.00546   0.00547   3.08440
    D8        0.86605   0.00026   0.00000   0.01483   0.01482   0.88087
    D9        0.89807   0.00029   0.00000   0.01762   0.01761   0.91568
   D10        3.11116  -0.00007   0.00000   0.00816   0.00817   3.11933
   D11        3.10045  -0.00001   0.00000   0.01340   0.01340   3.11385
   D12        0.88782   0.00032   0.00000   0.02270   0.02270   0.91051
         Item               Value     Threshold  Converged?
 Maximum Force            0.006527     0.000450     NO 
 RMS     Force            0.002640     0.000300     NO 
 Maximum Displacement     0.084120     0.001800     NO 
 RMS     Displacement     0.035422     0.001200     NO 
 Predicted change in Energy=-4.600815D-04
 GradGradGradGradGradGradGradGradGradGradGradGradGradGradGradGradGradGrad

                          Input orientation:                          
 ---------------------------------------------------------------------
 Center     Atomic     Atomic              Coordinates (Angstroms)
 Number     Number      Type              X           Y           Z
 ---------------------------------------------------------------------
    1          8             0       -2.152822   -1.231242   -0.108884
    2          8             0        0.015214    2.374385    0.726241
    3          8             0        2.135940   -1.257840   -0.112341
    4          8             0       -0.000247    0.119399   -0.513364
    5          1             0       -2.238035   -2.017829    0.447334
    6          1             0       -0.485532    2.591134    1.524772
    7          1             0        0.068087    3.196340    0.218524
    8          1             0       -2.780225   -1.354781   -0.835007
    9          1             0        2.719014   -1.195545    0.656740
   10          1             0        2.709849   -1.478037   -0.859538
   11          1             0        0.857777   -0.384684   -0.326427
   12          1             0       -0.040077    0.994868   -0.006226
   13          1             0       -0.817998   -0.452519   -0.341600
 ---------------------------------------------------------------------
                    Distance matrix (angstroms):
                    1          2          3          4          5
     1  O    0.000000
     2  O    4.289331   0.000000
     3  O    4.288846   4.288794   0.000000
     4  O    2.573211   2.573290   2.573111   0.000000
     5  H    0.967139   4.944336   4.474648   3.240120   0.000000
     6  H    4.478756   0.967149   4.936279   3.240212   5.047245
     7  H    4.964184   0.967566   4.921912   3.163527   5.705971
     8  H    0.967549   4.915146   4.969942   3.163059   1.542077
     9  H    4.931758   4.478813   0.967131   3.239228   5.029148
    10  H    4.926455   4.961543   0.967555   3.164847   5.145954
    11  H    3.134915   3.070910   1.562669   1.012546   3.584678
    12  H    3.070798   1.562892   3.133848   1.012532   3.756738
    13  H    1.562793   3.134631   3.070318   1.012576   2.255906
                    6          7          8          9         10
     6  H    0.000000
     7  H    1.542417   0.000000
     8  H    5.138524   5.471336   0.000000
     9  H    5.036023   5.148602   5.700202   0.000000
    10  H    5.696801   5.476398   5.491513   1.542396   0.000000
    11  H    3.753253   3.707333   3.799316   2.255729   2.215807
    12  H    2.256203   2.215557   3.703531   3.584692   3.795457
    13  H    3.585764   3.796454   2.215370   3.749563   3.710210
                   11         12         13
    11  H    0.000000
    12  H    1.676853   0.000000
    13  H    1.677216   1.677071   0.000000
 Stoichiometry    H9O4(1+)
 Framework group  C1[X(H9O4)]
 Deg. of freedom    33
 Full point group                 C1
 Largest Abelian subgroup         C1      NOp   1
 Largest concise Abelian subgroup C1      NOp   1
                         Standard orientation:                         
 ---------------------------------------------------------------------
 Center     Atomic     Atomic              Coordinates (Angstroms)
 Number     Number      Type              X           Y           Z
 ---------------------------------------------------------------------
    1          8             0       -2.460088   -0.282701    0.163173
    2          8             0        0.985806    2.271546    0.162809
    3          8             0        1.474592   -1.989304    0.161489
    4          8             0       -0.000225    0.000081   -0.537199
    5          1             0       -2.789266   -0.839341    0.882307
    6          1             0        0.679198    2.827311    0.892531
    7          1             0        1.303070    2.882600   -0.517000
    8          1             0       -3.149183   -0.297489   -0.515856
    9          1             0        2.103351   -2.003145    0.896208
   10          1             0        1.851764   -2.566241   -0.517516
   11          1             0        0.613212   -0.749620   -0.242422
   12          1             0        0.342737    0.905273   -0.240172
   13          1             0       -0.955561   -0.156324   -0.240248
 ---------------------------------------------------------------------
 Rotational constants (GHZ):      2.7215795      2.7209913      1.4320519
 Standard basis: Aug-CC-pVDZ (5D, 7F)
 There are   173 symmetry adapted basis functions of A   symmetry.
 Integral buffers will be    131072 words long.
 Raffenetti 1 integral format.
 Two-electron integral symmetry is turned on.
   173 basis functions,   271 primitive gaussians,   181 cartesian basis functions
    20 alpha electrons       20 beta electrons
       nuclear repulsion energy       143.0706629243 Hartrees.
 NAtoms=   13 NActive=   13 NUniq=   13 SFac= 7.50D-01 NAtFMM=   80 NAOKFM=F Big=F
 One-electron integrals computed using PRISM.
 NBasis=   173 RedAO= T  NBF=   173
 NBsUse=   173 1.00D-06 NBFU=   173
 Initial guess read from the read-write file:
 Initial guess orbital symmetries:
       Occupied  (A) (A) (A) (A) (A) (A) (A) (A) (A) (A) (A) (A)
                 (A) (A) (A) (A) (A) (A) (A) (A)
       Virtual   (A) (A) (A) (A) (A) (A) (A) (A) (A) (A) (A) (A)
                 (A) (A) (A) (A) (A) (A) (A) (A) (A) (A) (A) (A)
                 (A) (A) (A) (A) (A) (A) (A) (A) (A) (A) (A) (A)
                 (A) (A) (A) (A) (A) (A) (A) (A) (A) (A) (A) (A)
                 (A) (A) (A) (A) (A) (A) (A) (A) (A) (A) (A) (A)
                 (A) (A) (A) (A) (A) (A) (A) (A) (A) (A) (A) (A)
                 (A) (A) (A) (A) (A) (A) (A) (A) (A) (A) (A) (A)
                 (A) (A) (A) (A) (A) (A) (A) (A) (A) (A) (A) (A)
                 (A) (A) (A) (A) (A) (A) (A) (A) (A) (A) (A) (A)
                 (A) (A) (A) (A) (A) (A) (A) (A) (A) (A) (A) (A)
                 (A) (A) (A) (A) (A) (A) (A) (A) (A) (A) (A) (A)
                 (A) (A) (A) (A) (A) (A) (A) (A) (A) (A) (A) (A)
                 (A) (A) (A) (A) (A) (A) (A) (A) (A)
 Harris functional with IExCor=  205 diagonalized for initial guess.
 ExpMin= 2.97D-02 ExpMax= 1.17D+04 ExpMxC= 4.01D+02 IAcc=3 IRadAn=         5 AccDes= 0.00D+00
 HarFok:  IExCor= 205 AccDes= 0.00D+00 IRadAn=         5 IDoV=1
 ScaDFX=  1.000000  1.000000  1.000000  1.000000
 Requested convergence on RMS density matrix=1.00D-08 within 128 cycles.
 Requested convergence on MAX density matrix=1.00D-06.
 Requested convergence on             energy=1.00D-06.
 No special actions if energy rises.
 SCF Done:  E(RHF) =  -304.550080584     A.U. after   11 cycles
             Convg  =    0.4049D-08             -V/T =  2.0017
             S**2   =   0.0000
 ExpMin= 2.97D-02 ExpMax= 1.17D+04 ExpMxC= 4.01D+02 IAcc=3 IRadAn=         5 AccDes= 0.00D+00
 HarFok:  IExCor= 205 AccDes= 0.00D+00 IRadAn=         5 IDoV=1
 ScaDFX=  1.000000  1.000000  1.000000  1.000000
 Range of M.O.s used for correlation:     5   173
 NBasis=   173 NAE=    20 NBE=    20 NFC=     4 NFV=     0
 NROrb=    169 NOA=    16 NOB=    16 NVA=   153 NVB=   153

 **** Warning!!: The largest alpha MO coefficient is  0.12052691D+02

 Fully direct method using O(ONN) memory.
 JobTyp=1 Pass  1:  I=   5 to  20 NPSUse=  2 ParTrn=T ParDer=T DoDerP=T.
 Spin components of T(2) and E(2):
     alpha-alpha T2 =       0.3052006896D-01 E2=     -0.1138147415D+00
     alpha-beta  T2 =       0.1703959111D+00 E2=     -0.6590538544D+00
     beta-beta   T2 =       0.3052006896D-01 E2=     -0.1138147415D+00
 ANorm=    0.1109700883D+01
 E2 =    -0.8866833374D+00 EUMP2 =    -0.30543676392105D+03
 DoAtom=TTTTTTTTTTTTT
          Differentiating once with respect to electric field.
                with respect to dipole field.
          Differentiating once with respect to nuclear coordinates.
          There are   1 degrees of freedom in the 1st order CPHF.
 Petite list used in FoFDir.
 MinBra= 0 MaxBra= 2 Meth= 1.
 IRaf=       0 NMat=   1 IRICut=       1 DoRegI=T DoRafI=F ISym2E= 1 JSym2E=1.
     1 vectors were produced by pass  0.
 AX will form   1 AO Fock derivatives at one time.
     1 vectors were produced by pass  1.
     1 vectors were produced by pass  2.
     1 vectors were produced by pass  3.
     1 vectors were produced by pass  4.
     1 vectors were produced by pass  5.
     1 vectors were produced by pass  6.
     1 vectors were produced by pass  7.
     1 vectors were produced by pass  8.
     1 vectors were produced by pass  9.
     1 vectors were produced by pass 10.
 Inv2:  IOpt= 1 Iter= 1 AM= 2.63D-16 Conv= 1.00D-12.
 Inverted reduced A of dimension   11 with in-core refinement.
 End of Minotr Frequency-dependent properties file   721 does not exist.
 ***** Axes restored to original set *****
 -------------------------------------------------------------------
 Center     Atomic                   Forces (Hartrees/Bohr)
 Number     Number              X              Y              Z
 -------------------------------------------------------------------
    1          8           0.000691230    0.000727835   -0.000334342
    2          8           0.000194152   -0.000805299   -0.000716509
    3          8          -0.000914527    0.000415254   -0.000460282
    4          8           0.000023512    0.000091064   -0.000225400
    5          1           0.000011696   -0.000377153    0.000388757
    6          1          -0.000234487    0.000051180    0.000446214
    7          1           0.000047498    0.000486445   -0.000159281
    8          1          -0.000400730   -0.000091548   -0.000346519
    9          1           0.000262743    0.000034346    0.000450456
   10          1           0.000357786   -0.000197037   -0.000331364
   11          1           0.000361152   -0.000326293    0.000446036
   12          1          -0.000044275    0.000334540    0.000521737
   13          1          -0.000355751   -0.000343333    0.000320498
 -------------------------------------------------------------------
 Cartesian Forces:  Max     0.000914527 RMS     0.000405778

 GradGradGradGradGradGradGradGradGradGradGradGradGradGradGradGradGradGrad
 Berny optimization.
 Internal  Forces:  Max     0.000531596 RMS     0.000260691
 Search for a local minimum.
 Step number   2 out of a maximum of  49
 All quantities printed in internal units (Hartrees-Bohrs-Radians)
 Update second derivatives using D2CorX and points  1  2
 Trust test= 1.00D+00 RLast= 1.24D-01 DXMaxT set to 3.73D-01
     Eigenvalues ---    0.00229   0.00230   0.00230   0.00754   0.00759
     Eigenvalues ---    0.00760   0.02566   0.02576   0.02603   0.03696
     Eigenvalues ---    0.09001   0.09598   0.09600   0.14023   0.14025
     Eigenvalues ---    0.15804   0.16000   0.16000   0.16000   0.16000
     Eigenvalues ---    0.16141   0.24975   0.25000   0.25000   0.44284
     Eigenvalues ---    0.44289   0.44434   0.53025   0.53032   0.53068
     Eigenvalues ---    0.53106   0.53109   0.562881000.000001000.00000
     Eigenvalues --- 1000.000001000.000001000.000001000.00000
 RFO step:  Lambda=-1.89465996D-05.
 Quartic linear search produced a step of -0.00085.
 Iteration  1 RMS(Cart)=  0.01250553 RMS(Int)=  0.00016647
 Iteration  2 RMS(Cart)=  0.00017170 RMS(Int)=  0.00000262
 Iteration  3 RMS(Cart)=  0.00000004 RMS(Int)=  0.00000262
 Variable       Old X    -DE/DX   Delta X   Delta X   Delta X     New X
                                 (Linear)    (Quad)   (Total)
    R1        1.82763   0.00053   0.00001   0.00086   0.00086   1.82849
    R2        1.82840   0.00053   0.00001   0.00086   0.00087   1.82927
    R3        2.95325  -0.00043   0.00002  -0.00488  -0.00486   2.94839
    R4        1.82765   0.00050   0.00001   0.00080   0.00081   1.82846
    R5        1.82843   0.00050   0.00001   0.00080   0.00081   1.82924
    R6        2.95344  -0.00044   0.00002  -0.00495  -0.00493   2.94851
    R7        1.82761   0.00052   0.00001   0.00084   0.00084   1.82846
    R8        1.82841   0.00051   0.00001   0.00083   0.00083   1.82925
    R9        2.95302  -0.00043   0.00002  -0.00486  -0.00484   2.94818
   R10        1.91344   0.00011   0.00001   0.00000   0.00001   1.91344
   R11        1.91341   0.00011   0.00001  -0.00002  -0.00001   1.91340
   R12        1.91349   0.00010   0.00001  -0.00004  -0.00003   1.91346
    A1        1.84485   0.00002   0.00002   0.00060   0.00062   1.84546
    A2        2.17264  -0.00012   0.00000  -0.00009  -0.00009   2.17254
    A3        2.10102   0.00016   0.00000   0.00174   0.00174   2.10276
    A4        1.84539  -0.00002   0.00002   0.00033   0.00035   1.84574
    A5        2.17299  -0.00010   0.00000   0.00004   0.00004   2.17303
    A6        2.10116   0.00020   0.00000   0.00200   0.00200   2.10315
    A7        1.84540  -0.00002   0.00002   0.00028   0.00030   1.84570
    A8        2.17254  -0.00010   0.00000   0.00003   0.00003   2.17257
    A9        2.10195   0.00019   0.00000   0.00188   0.00187   2.10382
   A10        1.95122   0.00009   0.00000   0.00212   0.00212   1.95334
   A11        1.95179   0.00006   0.00000   0.00185   0.00185   1.95364
   A12        1.95156   0.00007   0.00000   0.00196   0.00196   1.95352
   A13        3.05882  -0.00027   0.00000  -0.00110  -0.00110   3.05772
   A14        3.05824  -0.00025   0.00000  -0.00100  -0.00100   3.05723
   A15        3.05778  -0.00023   0.00000  -0.00091  -0.00091   3.05687
    D1       -2.75494   0.00012  -0.00001   0.02461   0.02460  -2.73034
    D2        1.05763  -0.00002  -0.00006   0.02026   0.02020   1.07783
    D3       -2.74144   0.00010   0.00000   0.01490   0.01490  -2.72654
    D4        1.06904  -0.00004  -0.00005   0.01040   0.01035   1.07940
    D5       -2.69570   0.00008   0.00000   0.00789   0.00790  -2.68780
    D6        1.11413  -0.00005  -0.00004   0.00374   0.00370   1.11783
    D7        3.08440   0.00014   0.00000   0.00733   0.00733   3.09173
    D8        0.88087  -0.00008  -0.00001   0.00157   0.00156   0.88243
    D9        0.91568  -0.00006  -0.00001   0.00299   0.00297   0.91865
   D10        3.11933   0.00015  -0.00001   0.00868   0.00868   3.12801
   D11        3.11385   0.00018  -0.00001   0.01166   0.01165   3.12550
   D12        0.91051  -0.00005  -0.00002   0.00581   0.00579   0.91630
         Item               Value     Threshold  Converged?
 Maximum Force            0.000532     0.000450     NO 
 RMS     Force            0.000261     0.000300     YES
 Maximum Displacement     0.031838     0.001800     NO 
 RMS     Displacement     0.012529     0.001200     NO 
 Predicted change in Energy=-9.495724D-06
 GradGradGradGradGradGradGradGradGradGradGradGradGradGradGradGradGradGrad

                          Input orientation:                          
 ---------------------------------------------------------------------
 Center     Atomic     Atomic              Coordinates (Angstroms)
 Number     Number      Type              X           Y           Z
 ---------------------------------------------------------------------
    1          8             0       -2.152793   -1.228815   -0.114189
    2          8             0        0.015695    2.374695    0.723904
    3          8             0        2.134429   -1.257503   -0.115614
    4          8             0       -0.000149    0.119392   -0.509578
    5          1             0       -2.246198   -2.001215    0.461064
    6          1             0       -0.472729    2.588540    1.531320
    7          1             0        0.055831    3.197365    0.215361
    8          1             0       -2.768328   -1.371629   -0.847513
    9          1             0        2.714046   -1.203973    0.657293
   10          1             0        2.711641   -1.471692   -0.862586
   11          1             0        0.858268   -0.384780   -0.324669
   12          1             0       -0.040222    0.995687   -0.003894
   13          1             0       -0.818546   -0.452426   -0.340674
 ---------------------------------------------------------------------
                    Distance matrix (angstroms):
                    1          2          3          4          5
     1  O    0.000000
     2  O    4.288359   0.000000
     3  O    4.287318   4.287970   0.000000
     4  O    2.570578   2.570626   2.570500   0.000000
     5  H    0.967596   4.932934   4.480576   3.237879   0.000000
     6  H    4.483583   0.967579   4.929677   3.238099   5.035523
     7  H    4.957590   0.967994   4.927065   3.162687   5.690778
     8  H    0.968010   4.924945   4.958400   3.162303   1.543169
     9  H    4.927668   4.482454   0.967578   3.237242   5.027735
    10  H    4.927657   4.957798   0.967996   3.163853   5.158742
    11  H    3.134196   3.069876   1.560108   1.012551   3.587193
    12  H    3.069777   1.560282   3.133441   1.012528   3.750192
    13  H    1.560221   3.133990   3.069017   1.012560   2.253824
                    6          7          8          9         10
     6  H    0.000000
     7  H    1.543306   0.000000
     8  H    5.158640   5.475517   0.000000
     9  H    5.030170   5.160735   5.687616   0.000000
    10  H    5.688275   5.478630   5.480903   1.543280   0.000000
    11  H    3.749250   3.710431   3.794659   2.253716   2.214887
    12  H    2.254135   2.214653   3.709237   3.586316   3.794477
    13  H    3.587677   3.794033   2.214378   3.746994   3.711269
                   11         12         13
    11  H    0.000000
    12  H    1.678055   0.000000
    13  H    1.678254   1.678165   0.000000
 Stoichiometry    H9O4(1+)
 Framework group  C1[X(H9O4)]
 Deg. of freedom    33
 Full point group                 C1
 Largest Abelian subgroup         C1      NOp   1
 Largest concise Abelian subgroup C1      NOp   1
                         Standard orientation:                         
 ---------------------------------------------------------------------
 Center     Atomic     Atomic              Coordinates (Angstroms)
 Number     Number      Type              X           Y           Z
 ---------------------------------------------------------------------
    1          8             0        1.487317   -1.978960    0.160324
    2          8             0       -2.457880   -0.298055    0.160102
    3          8             0        0.970702    2.277118    0.159630
    4          8             0       -0.000217   -0.000194   -0.532206
    5          1             0        2.116559   -1.991537    0.895265
    6          1             0       -2.783442   -0.831161    0.899030
    7          1             0       -3.143881   -0.346379   -0.521133
    8          1             0        1.867887   -2.551708   -0.520977
    9          1             0        0.672092    2.824230    0.899702
   10          1             0        1.271767    2.896681   -0.520457
   11          1             0        0.336430    0.908751   -0.239380
   12          1             0       -0.955187   -0.162505   -0.237414
   13          1             0        0.618404   -0.745644   -0.237434
 ---------------------------------------------------------------------
 Rotational constants (GHZ):      2.7247548      2.7233342      1.4329783
 Standard basis: Aug-CC-pVDZ (5D, 7F)
 There are   173 symmetry adapted basis functions of A   symmetry.
 Integral buffers will be    131072 words long.
 Raffenetti 1 integral format.
 Two-electron integral symmetry is turned on.
   173 basis functions,   271 primitive gaussians,   181 cartesian basis functions
    20 alpha electrons       20 beta electrons
       nuclear repulsion energy       143.1263955826 Hartrees.
 NAtoms=   13 NActive=   13 NUniq=   13 SFac= 7.50D-01 NAtFMM=   80 NAOKFM=F Big=F
 One-electron integrals computed using PRISM.
 NBasis=   173 RedAO= T  NBF=   173
 NBsUse=   173 1.00D-06 NBFU=   173
 Initial guess read from the read-write file:
 Initial guess orbital symmetries:
       Occupied  (A) (A) (A) (A) (A) (A) (A) (A) (A) (A) (A) (A)
                 (A) (A) (A) (A) (A) (A) (A) (A)
       Virtual   (A) (A) (A) (A) (A) (A) (A) (A) (A) (A) (A) (A)
                 (A) (A) (A) (A) (A) (A) (A) (A) (A) (A) (A) (A)
                 (A) (A) (A) (A) (A) (A) (A) (A) (A) (A) (A) (A)
                 (A) (A) (A) (A) (A) (A) (A) (A) (A) (A) (A) (A)
                 (A) (A) (A) (A) (A) (A) (A) (A) (A) (A) (A) (A)
                 (A) (A) (A) (A) (A) (A) (A) (A) (A) (A) (A) (A)
                 (A) (A) (A) (A) (A) (A) (A) (A) (A) (A) (A) (A)
                 (A) (A) (A) (A) (A) (A) (A) (A) (A) (A) (A) (A)
                 (A) (A) (A) (A) (A) (A) (A) (A) (A) (A) (A) (A)
                 (A) (A) (A) (A) (A) (A) (A) (A) (A) (A) (A) (A)
                 (A) (A) (A) (A) (A) (A) (A) (A) (A) (A) (A) (A)
                 (A) (A) (A) (A) (A) (A) (A) (A) (A) (A) (A) (A)
                 (A) (A) (A) (A) (A) (A) (A) (A) (A)
 Harris functional with IExCor=  205 diagonalized for initial guess.
 ExpMin= 2.97D-02 ExpMax= 1.17D+04 ExpMxC= 4.01D+02 IAcc=3 IRadAn=         5 AccDes= 0.00D+00
 HarFok:  IExCor= 205 AccDes= 0.00D+00 IRadAn=         5 IDoV=1
 ScaDFX=  1.000000  1.000000  1.000000  1.000000
 Requested convergence on RMS density matrix=1.00D-08 within 128 cycles.
 Requested convergence on MAX density matrix=1.00D-06.
 Requested convergence on             energy=1.00D-06.
 No special actions if energy rises.
 SCF Done:  E(RHF) =  -304.549954853     A.U. after   11 cycles
             Convg  =    0.9804D-08             -V/T =  2.0017
             S**2   =   0.0000
 ExpMin= 2.97D-02 ExpMax= 1.17D+04 ExpMxC= 4.01D+02 IAcc=3 IRadAn=         5 AccDes= 0.00D+00
 HarFok:  IExCor= 205 AccDes= 0.00D+00 IRadAn=         5 IDoV=1
 ScaDFX=  1.000000  1.000000  1.000000  1.000000
 Range of M.O.s used for correlation:     5   173
 NBasis=   173 NAE=    20 NBE=    20 NFC=     4 NFV=     0
 NROrb=    169 NOA=    16 NOB=    16 NVA=   153 NVB=   153

 **** Warning!!: The largest alpha MO coefficient is  0.12001384D+02

 Fully direct method using O(ONN) memory.
 JobTyp=1 Pass  1:  I=   5 to  20 NPSUse=  2 ParTrn=T ParDer=T DoDerP=T.
 Spin components of T(2) and E(2):
     alpha-alpha T2 =       0.3053075489D-01 E2=     -0.1138418318D+00
     alpha-beta  T2 =       0.1704388386D+00 E2=     -0.6591399355D+00
     beta-beta   T2 =       0.3053075489D-01 E2=     -0.1138418318D+00
 ANorm=    0.1109729854D+01
 E2 =    -0.8868235991D+00 EUMP2 =    -0.30543677845239D+03
 DoAtom=TTTTTTTTTTTTT
          Differentiating once with respect to electric field.
                with respect to dipole field.
          Differentiating once with respect to nuclear coordinates.
          There are   1 degrees of freedom in the 1st order CPHF.
 Petite list used in FoFDir.
 MinBra= 0 MaxBra= 2 Meth= 1.
 IRaf=       0 NMat=   1 IRICut=       1 DoRegI=T DoRafI=F ISym2E= 1 JSym2E=1.
     1 vectors were produced by pass  0.
 AX will form   1 AO Fock derivatives at one time.
     1 vectors were produced by pass  1.
     1 vectors were produced by pass  2.
     1 vectors were produced by pass  3.
     1 vectors were produced by pass  4.
     1 vectors were produced by pass  5.
     1 vectors were produced by pass  6.
     1 vectors were produced by pass  7.
     1 vectors were produced by pass  8.
     1 vectors were produced by pass  9.
     1 vectors were produced by pass 10.
 Inv2:  IOpt= 1 Iter= 1 AM= 3.04D-16 Conv= 1.00D-12.
 Inverted reduced A of dimension   11 with in-core refinement.
 End of Minotr Frequency-dependent properties file   721 does not exist.
 ***** Axes restored to original set *****
 -------------------------------------------------------------------
 Center     Atomic                   Forces (Hartrees/Bohr)
 Number     Number              X              Y              Z
 -------------------------------------------------------------------
    1          8           0.000255927    0.000217323   -0.000350699
    2          8           0.000002700   -0.000218693   -0.000455997
    3          8          -0.000253548    0.000237505   -0.000372439
    4          8           0.000026583    0.000126142   -0.000440214
    5          1           0.000003201   -0.000021500    0.000059409
    6          1          -0.000016954    0.000002846    0.000058176
    7          1           0.000012124    0.000115608    0.000070981
    8          1          -0.000108393   -0.000050032    0.000025247
    9          1           0.000026360   -0.000001244    0.000057779
   10          1           0.000101082   -0.000081353    0.000019898
   11          1           0.000306545   -0.000310676    0.000449045
   12          1          -0.000024586    0.000292812    0.000512715
   13          1          -0.000331040   -0.000308737    0.000366100
 -------------------------------------------------------------------
 Cartesian Forces:  Max     0.000512715 RMS     0.000232267

 GradGradGradGradGradGradGradGradGradGradGradGradGradGradGradGradGradGrad
 Berny optimization.
 Internal  Forces:  Max     0.000260550 RMS     0.000139640
 Search for a local minimum.
 Step number   3 out of a maximum of  49
 All quantities printed in internal units (Hartrees-Bohrs-Radians)
 Update second derivatives using D2CorX and points  1  2  3
 Trust test= 1.53D+00 RLast= 4.28D-02 DXMaxT set to 3.73D-01
     Eigenvalues ---    0.00208   0.00230   0.00230   0.00644   0.00760
     Eigenvalues ---    0.00761   0.02242   0.02534   0.02546   0.02937
     Eigenvalues ---    0.07322   0.09598   0.09601   0.14042   0.14046
     Eigenvalues ---    0.15377   0.16000   0.16000   0.16000   0.16003
     Eigenvalues ---    0.16142   0.24221   0.25000   0.25004   0.44285
     Eigenvalues ---    0.44289   0.45643   0.53025   0.53033   0.53068
     Eigenvalues ---    0.53106   0.53109   0.614071000.000001000.00000
     Eigenvalues --- 1000.000001000.000001000.000001000.00000
 RFO step:  Lambda=-8.41620028D-06.
 Quartic linear search produced a step of  1.18156.
 Iteration  1 RMS(Cart)=  0.01696704 RMS(Int)=  0.00027972
 Iteration  2 RMS(Cart)=  0.00028600 RMS(Int)=  0.00001978
 Iteration  3 RMS(Cart)=  0.00000011 RMS(Int)=  0.00001978
 Variable       Old X    -DE/DX   Delta X   Delta X   Delta X     New X
                                 (Linear)    (Quad)   (Total)
    R1        1.82849   0.00005   0.00102  -0.00062   0.00040   1.82889
    R2        1.82927   0.00006   0.00103  -0.00061   0.00042   1.82970
    R3        2.94839  -0.00024  -0.00574  -0.00244  -0.00818   2.94021
    R4        1.82846   0.00006   0.00096  -0.00056   0.00040   1.82886
    R5        1.82924   0.00006   0.00096  -0.00054   0.00041   1.82966
    R6        2.94851  -0.00024  -0.00583  -0.00242  -0.00824   2.94026
    R7        1.82846   0.00006   0.00100  -0.00057   0.00043   1.82888
    R8        1.82925   0.00006   0.00099  -0.00056   0.00043   1.82968
    R9        2.94818  -0.00023  -0.00572  -0.00222  -0.00794   2.94024
   R10        1.91344   0.00026   0.00001   0.00090   0.00091   1.91435
   R11        1.91340   0.00026  -0.00001   0.00092   0.00091   1.91431
   R12        1.91346   0.00025  -0.00003   0.00091   0.00087   1.91433
    A1        1.84546  -0.00004   0.00073  -0.00014   0.00057   1.84603
    A2        2.17254  -0.00006  -0.00011   0.00036   0.00023   2.17277
    A3        2.10276   0.00016   0.00206   0.00214   0.00418   2.10694
    A4        1.84574  -0.00006   0.00041  -0.00035   0.00005   1.84579
    A5        2.17303  -0.00006   0.00005   0.00020   0.00023   2.17326
    A6        2.10315   0.00017   0.00236   0.00197   0.00431   2.10747
    A7        1.84570  -0.00005   0.00035  -0.00038  -0.00004   1.84566
    A8        2.17257  -0.00006   0.00003   0.00012   0.00014   2.17271
    A9        2.10382   0.00016   0.00222   0.00185   0.00405   2.10787
   A10        1.95334   0.00009   0.00250   0.00294   0.00538   1.95871
   A11        1.95364   0.00006   0.00218   0.00268   0.00480   1.95844
   A12        1.95352   0.00007   0.00231   0.00283   0.00508   1.95860
   A13        3.05772  -0.00024  -0.00130  -0.00132  -0.00262   3.05510
   A14        3.05723  -0.00024  -0.00118  -0.00136  -0.00255   3.05469
   A15        3.05687  -0.00023  -0.00108  -0.00135  -0.00242   3.05445
    D1       -2.73034   0.00007   0.02907   0.00123   0.03031  -2.70004
    D2        1.07783  -0.00004   0.02387  -0.00309   0.02077   1.09860
    D3       -2.72654   0.00005   0.01760   0.00097   0.01858  -2.70796
    D4        1.07940  -0.00004   0.01223  -0.00231   0.00992   1.08931
    D5       -2.68780   0.00004   0.00933   0.00012   0.00946  -2.67835
    D6        1.11783  -0.00004   0.00438  -0.00272   0.00165   1.11948
    D7        3.09173   0.00013   0.00866   0.00813   0.01681   3.10854
    D8        0.88243  -0.00008   0.00184  -0.00016   0.00166   0.88409
    D9        0.91865  -0.00008   0.00351  -0.00082   0.00266   0.92131
   D10        3.12801   0.00013   0.01026   0.00738   0.01766  -3.13751
   D11        3.12550   0.00014   0.01376   0.00730   0.02108  -3.13660
   D12        0.91630  -0.00008   0.00684  -0.00105   0.00577   0.92207
         Item               Value     Threshold  Converged?
 Maximum Force            0.000261     0.000450     YES
 RMS     Force            0.000140     0.000300     YES
 Maximum Displacement     0.038550     0.001800     NO 
 RMS     Displacement     0.017005     0.001200     NO 
 Predicted change in Energy=-1.009840D-05
 GradGradGradGradGradGradGradGradGradGradGradGradGradGradGradGradGradGrad

                          Input orientation:                          
 ---------------------------------------------------------------------
 Center     Atomic     Atomic              Coordinates (Angstroms)
 Number     Number      Type              X           Y           Z
 ---------------------------------------------------------------------
    1          8             0       -2.153476   -1.227269   -0.122793
    2          8             0        0.015229    2.377049    0.719592
    3          8             0        2.134587   -1.256863   -0.121369
    4          8             0        0.000028    0.117706   -0.498045
    5          1             0       -2.260967   -1.980904    0.474809
    6          1             0       -0.455391    2.589944    1.538010
    7          1             0        0.039503    3.199197    0.208789
    8          1             0       -2.753469   -1.392029   -0.864642
    9          1             0        2.710681   -1.217484    0.655298
   10          1             0        2.714837   -1.461957   -0.868833
   11          1             0        0.860516   -0.385763   -0.318290
   12          1             0       -0.041414    0.996918    0.003411
   13          1             0       -0.819720   -0.454896   -0.335713
 ---------------------------------------------------------------------
                    Distance matrix (angstroms):
                    1          2          3          4          5
     1  O    0.000000
     2  O    4.289989   0.000000
     3  O    4.288166   4.290013   0.000000
     4  O    2.566583   2.566613   2.566645   0.000000
     5  H    0.967806   4.922676   4.494503   3.234610   0.000000
     6  H    4.495873   0.967789   4.925388   3.234948   5.028236
     7  H    4.951031   0.968213   4.935063   3.161765   5.674185
     8  H    0.968234   4.937756   4.946091   3.161556   1.543846
     9  H    4.926007   4.493357   0.967804   3.234280   5.033157
    10  H    4.930733   4.954688   0.968223   3.162753   5.180087
    11  H    3.135363   3.069990   1.555908   1.013032   3.594042
    12  H    3.069812   1.555919   3.135296   1.013010   3.743802
    13  H    1.555892   3.135398   3.068718   1.013021   2.250075
                    6          7          8          9         10
     6  H    0.000000
     7  H    1.543677   0.000000
     8  H    5.187486   5.480173   0.000000
     9  H    5.029880   5.180890   5.674294   0.000000
    10  H    5.679888   5.481335   5.468755   1.543618   0.000000
    11  H    3.745970   3.715348   3.791037   2.250053   2.213548
    12  H    2.250356   2.213314   3.716964   3.592013   3.795233
    13  H    3.593692   3.793039   2.212999   3.745314   3.713689
                   11         12         13
    11  H    0.000000
    12  H    1.681897   0.000000
    13  H    1.681749   1.681824   0.000000
 Stoichiometry    H9O4(1+)
 Framework group  C1[X(H9O4)]
 Deg. of freedom    33
 Full point group                 C1
 Largest Abelian subgroup         C1      NOp   1
 Largest concise Abelian subgroup C1      NOp   1
                         Standard orientation:                         
 ---------------------------------------------------------------------
 Center     Atomic     Atomic              Coordinates (Angstroms)
 Number     Number      Type              X           Y           Z
 ---------------------------------------------------------------------
    1          8             0       -1.180816    2.176567    0.154739
    2          8             0        2.476243   -0.066182    0.154706
    3          8             0       -1.295596   -2.110062    0.155290
    4          8             0        0.000593    0.000033   -0.519294
    5          1             0       -1.777183    2.294758    0.907750
    6          1             0        2.878408    0.395120    0.904425
    7          1             0        3.160662   -0.103033   -0.529142
    8          1             0       -1.497220    2.784254   -0.529426
    9          1             0       -1.092920   -2.691665    0.901818
   10          1             0       -1.676298   -2.681567   -0.527282
   11          1             0       -0.466285   -0.851741   -0.231649
   12          1             0        0.971189    0.021440   -0.230027
   13          1             0       -0.503743    0.829590   -0.229998
 ---------------------------------------------------------------------
 Rotational constants (GHZ):      2.7278789      2.7245350      1.4321892
 Standard basis: Aug-CC-pVDZ (5D, 7F)
 There are   173 symmetry adapted basis functions of A   symmetry.
 Integral buffers will be    131072 words long.
 Raffenetti 1 integral format.
 Two-electron integral symmetry is turned on.
   173 basis functions,   271 primitive gaussians,   181 cartesian basis functions
    20 alpha electrons       20 beta electrons
       nuclear repulsion energy       143.1852492414 Hartrees.
 NAtoms=   13 NActive=   13 NUniq=   13 SFac= 7.50D-01 NAtFMM=   80 NAOKFM=F Big=F
 One-electron integrals computed using PRISM.
 NBasis=   173 RedAO= T  NBF=   173
 NBsUse=   173 1.00D-06 NBFU=   173
 Initial guess read from the read-write file:
 Initial guess orbital symmetries:
       Occupied  (A) (A) (A) (A) (A) (A) (A) (A) (A) (A) (A) (A)
                 (A) (A) (A) (A) (A) (A) (A) (A)
       Virtual   (A) (A) (A) (A) (A) (A) (A) (A) (A) (A) (A) (A)
                 (A) (A) (A) (A) (A) (A) (A) (A) (A) (A) (A) (A)
                 (A) (A) (A) (A) (A) (A) (A) (A) (A) (A) (A) (A)
                 (A) (A) (A) (A) (A) (A) (A) (A) (A) (A) (A) (A)
                 (A) (A) (A) (A) (A) (A) (A) (A) (A) (A) (A) (A)
                 (A) (A) (A) (A) (A) (A) (A) (A) (A) (A) (A) (A)
                 (A) (A) (A) (A) (A) (A) (A) (A) (A) (A) (A) (A)
                 (A) (A) (A) (A) (A) (A) (A) (A) (A) (A) (A) (A)
                 (A) (A) (A) (A) (A) (A) (A) (A) (A) (A) (A) (A)
                 (A) (A) (A) (A) (A) (A) (A) (A) (A) (A) (A) (A)
                 (A) (A) (A) (A) (A) (A) (A) (A) (A) (A) (A) (A)
                 (A) (A) (A) (A) (A) (A) (A) (A) (A) (A) (A) (A)
                 (A) (A) (A) (A) (A) (A) (A) (A) (A)
 Harris functional with IExCor=  205 diagonalized for initial guess.
 ExpMin= 2.97D-02 ExpMax= 1.17D+04 ExpMxC= 4.01D+02 IAcc=3 IRadAn=         5 AccDes= 0.00D+00
 HarFok:  IExCor= 205 AccDes= 0.00D+00 IRadAn=         5 IDoV=1
 ScaDFX=  1.000000  1.000000  1.000000  1.000000
 Requested convergence on RMS density matrix=1.00D-08 within 128 cycles.
 Requested convergence on MAX density matrix=1.00D-06.
 Requested convergence on             energy=1.00D-06.
 No special actions if energy rises.
 SCF Done:  E(RHF) =  -304.549827004     A.U. after   11 cycles
             Convg  =    0.8950D-08             -V/T =  2.0017
             S**2   =   0.0000
 ExpMin= 2.97D-02 ExpMax= 1.17D+04 ExpMxC= 4.01D+02 IAcc=3 IRadAn=         5 AccDes= 0.00D+00
 HarFok:  IExCor= 205 AccDes= 0.00D+00 IRadAn=         5 IDoV=1
 ScaDFX=  1.000000  1.000000  1.000000  1.000000
 Range of M.O.s used for correlation:     5   173
 NBasis=   173 NAE=    20 NBE=    20 NFC=     4 NFV=     0
 NROrb=    169 NOA=    16 NOB=    16 NVA=   153 NVB=   153

 **** Warning!!: The largest alpha MO coefficient is  0.11796421D+02

 Fully direct method using O(ONN) memory.
 JobTyp=1 Pass  1:  I=   5 to  20 NPSUse=  2 ParTrn=T ParDer=T DoDerP=T.
 Spin components of T(2) and E(2):
     alpha-alpha T2 =       0.3054072280D-01 E2=     -0.1138762507D+00
     alpha-beta  T2 =       0.1704581712D+00 E2=     -0.6592110218D+00
     beta-beta   T2 =       0.3054072280D-01 E2=     -0.1138762507D+00
 ANorm=    0.1109747546D+01
 E2 =    -0.8869635231D+00 EUMP2 =    -0.30543679052706D+03
 DoAtom=TTTTTTTTTTTTT
          Differentiating once with respect to electric field.
                with respect to dipole field.
          Differentiating once with respect to nuclear coordinates.
          There are   1 degrees of freedom in the 1st order CPHF.
 Petite list used in FoFDir.
 MinBra= 0 MaxBra= 2 Meth= 1.
 IRaf=       0 NMat=   1 IRICut=       1 DoRegI=T DoRafI=F ISym2E= 1 JSym2E=1.
     1 vectors were produced by pass  0.
 AX will form   1 AO Fock derivatives at one time.
     1 vectors were produced by pass  1.
     1 vectors were produced by pass  2.
     1 vectors were produced by pass  3.
     1 vectors were produced by pass  4.
     1 vectors were produced by pass  5.
     1 vectors were produced by pass  6.
     1 vectors were produced by pass  7.
     1 vectors were produced by pass  8.
     1 vectors were produced by pass  9.
     1 vectors were produced by pass 10.
 Inv2:  IOpt= 1 Iter= 1 AM= 2.64D-16 Conv= 1.00D-12.
 Inverted reduced A of dimension   11 with in-core refinement.
 End of Minotr Frequency-dependent properties file   721 does not exist.
 ***** Axes restored to original set *****
 -------------------------------------------------------------------
 Center     Atomic                   Forces (Hartrees/Bohr)
 Number     Number              X              Y              Z
 -------------------------------------------------------------------
    1          8          -0.000131083   -0.000177296   -0.000287816
    2          8          -0.000119071    0.000296120   -0.000159399
    3          8           0.000311050    0.000023641   -0.000245253
    4          8           0.000027875    0.000139581   -0.000634121
    5          1           0.000008303    0.000137585   -0.000120834
    6          1           0.000081234   -0.000045224   -0.000134664
    7          1           0.000015859   -0.000122473    0.000128475
    8          1           0.000062637    0.000016741    0.000198731
    9          1          -0.000116117   -0.000003664   -0.000125418
   10          1          -0.000090157    0.000003550    0.000156857
   11          1          -0.000100123   -0.000125438    0.000439400
   12          1           0.000052399   -0.000117604    0.000365530
   13          1          -0.000002807   -0.000025519    0.000418512
 -------------------------------------------------------------------
 Cartesian Forces:  Max     0.000634121 RMS     0.000201354

 GradGradGradGradGradGradGradGradGradGradGradGradGradGradGradGradGradGrad
 Berny optimization.
 Internal  Forces:  Max     0.000193929 RMS     0.000097099
 Search for a local minimum.
 Step number   4 out of a maximum of  49
 All quantities printed in internal units (Hartrees-Bohrs-Radians)
 Update second derivatives using D2CorX and points  1  2  3  4
 Trust test= 1.20D+00 RLast= 5.76D-02 DXMaxT set to 3.73D-01
     Eigenvalues ---    0.00225   0.00230   0.00231   0.00565   0.00760
     Eigenvalues ---    0.00766   0.01894   0.02472   0.02479   0.02796
     Eigenvalues ---    0.07739   0.09598   0.09601   0.14098   0.14103
     Eigenvalues ---    0.15203   0.16000   0.16000   0.16000   0.16021
     Eigenvalues ---    0.16156   0.23913   0.25000   0.25007   0.44286
     Eigenvalues ---    0.44289   0.44880   0.53025   0.53033   0.53070
     Eigenvalues ---    0.53106   0.53109   0.657821000.000001000.00000
     Eigenvalues --- 1000.000001000.000001000.000001000.00000
 RFO step:  Lambda=-2.20877695D-06.
 Quartic linear search produced a step of  0.23300.
 Iteration  1 RMS(Cart)=  0.00422074 RMS(Int)=  0.00002905
 Iteration  2 RMS(Cart)=  0.00001431 RMS(Int)=  0.00000696
 Iteration  3 RMS(Cart)=  0.00000000 RMS(Int)=  0.00000696
 Variable       Old X    -DE/DX   Delta X   Delta X   Delta X     New X
                                 (Linear)    (Quad)   (Total)
    R1        1.82889  -0.00018   0.00009  -0.00025  -0.00016   1.82873
    R2        1.82970  -0.00019   0.00010  -0.00027  -0.00018   1.82952
    R3        2.94021   0.00003  -0.00191   0.00010  -0.00180   2.93841
    R4        1.82886  -0.00016   0.00009  -0.00022  -0.00013   1.82873
    R5        1.82966  -0.00017   0.00010  -0.00024  -0.00014   1.82951
    R6        2.94026   0.00004  -0.00192   0.00012  -0.00180   2.93846
    R7        1.82888  -0.00017   0.00010  -0.00023  -0.00013   1.82875
    R8        1.82968  -0.00018   0.00010  -0.00025  -0.00015   1.82953
    R9        2.94024   0.00005  -0.00185   0.00021  -0.00164   2.93860
   R10        1.91435   0.00009   0.00021   0.00006   0.00027   1.91463
   R11        1.91431   0.00011   0.00021   0.00009   0.00030   1.91461
   R12        1.91433   0.00011   0.00020   0.00010   0.00031   1.91464
    A1        1.84603  -0.00004   0.00013   0.00016   0.00029   1.84632
    A2        2.17277  -0.00001   0.00005   0.00026   0.00030   2.17308
    A3        2.10694   0.00010   0.00097   0.00105   0.00202   2.10896
    A4        1.84579  -0.00001   0.00001   0.00028   0.00029   1.84608
    A5        2.17326  -0.00003   0.00005   0.00010   0.00015   2.17341
    A6        2.10747   0.00007   0.00101   0.00080   0.00180   2.10927
    A7        1.84566  -0.00001  -0.00001   0.00030   0.00028   1.84594
    A8        2.17271  -0.00003   0.00003   0.00003   0.00005   2.17276
    A9        2.10787   0.00007   0.00094   0.00075   0.00169   2.10956
   A10        1.95871   0.00003   0.00125   0.00091   0.00214   1.96086
   A11        1.95844   0.00003   0.00112   0.00092   0.00202   1.96046
   A12        1.95860   0.00004   0.00118   0.00097   0.00213   1.96073
   A13        3.05510  -0.00017  -0.00061  -0.00073  -0.00134   3.05377
   A14        3.05469  -0.00018  -0.00059  -0.00078  -0.00138   3.05331
   A15        3.05445  -0.00018  -0.00056  -0.00078  -0.00134   3.05311
    D1       -2.70004   0.00001   0.00706  -0.00650   0.00057  -2.69947
    D2        1.09860  -0.00006   0.00484  -0.00932  -0.00449   1.09412
    D3       -2.70796   0.00002   0.00433  -0.00210   0.00223  -2.70573
    D4        1.08931  -0.00004   0.00231  -0.00444  -0.00213   1.08718
    D5       -2.67835   0.00002   0.00220   0.00003   0.00224  -2.67611
    D6        1.11948  -0.00003   0.00038  -0.00210  -0.00172   1.11777
    D7        3.10854   0.00007   0.00392   0.00458   0.00851   3.11705
    D8        0.88409  -0.00003   0.00039   0.00175   0.00213   0.88622
    D9        0.92131  -0.00004   0.00062   0.00053   0.00114   0.92245
   D10       -3.13751   0.00006   0.00411   0.00334   0.00746  -3.13005
   D11       -3.13660   0.00005   0.00491   0.00199   0.00691  -3.12970
   D12        0.92207  -0.00005   0.00135  -0.00082   0.00052   0.92260
         Item               Value     Threshold  Converged?
 Maximum Force            0.000194     0.000450     YES
 RMS     Force            0.000097     0.000300     YES
 Maximum Displacement     0.010248     0.001800     NO 
 RMS     Displacement     0.004221     0.001200     NO 
 Predicted change in Energy=-1.556822D-06
 GradGradGradGradGradGradGradGradGradGradGradGradGradGradGradGradGradGrad

                          Input orientation:                          
 ---------------------------------------------------------------------
 Center     Atomic     Atomic              Coordinates (Angstroms)
 Number     Number      Type              X           Y           Z
 ---------------------------------------------------------------------
    1          8             0       -2.153903   -1.228324   -0.124705
    2          8             0        0.014398    2.378627    0.717692
    3          8             0        2.136117   -1.256384   -0.123244
    4          8             0        0.000039    0.116327   -0.492622
    5          1             0       -2.264662   -1.980554    0.473936
    6          1             0       -0.451842    2.592864    1.538184
    7          1             0        0.036803    3.199932    0.205594
    8          1             0       -2.753404   -1.392006   -0.867068
    9          1             0        2.711031   -1.222324    0.654461
   10          1             0        2.716925   -1.458195   -0.871068
   11          1             0        0.861685   -0.386199   -0.314968
   12          1             0       -0.042365    0.996881    0.006719
   13          1             0       -0.819876   -0.456997   -0.332686
 ---------------------------------------------------------------------
                    Distance matrix (angstroms):
                    1          2          3          4          5
     1  O    0.000000
     2  O    4.291999   0.000000
     3  O    4.290112   4.292105   0.000000
     4  O    2.565720   2.565749   2.565853   0.000000
     5  H    0.967723   4.925037   4.499767   3.234194   0.000000
     6  H    4.501520   0.967721   4.926924   3.234440   5.033397
     7  H    4.951539   0.968137   4.937004   3.161879   5.675048
     8  H    0.968141   4.938610   4.947634   3.161761   1.543875
     9  H    4.926938   4.499186   0.967735   3.233769   5.036370
    10  H    4.933038   4.954695   0.968145   3.162880   5.186338
    11  H    3.136742   3.070594   1.555042   1.013177   3.596996
    12  H    3.070408   1.554968   3.136857   1.013170   3.744598
    13  H    1.554938   3.136889   3.069328   1.013183   2.249283
                    6          7          8          9         10
     6  H    0.000000
     7  H    1.543729   0.000000
     8  H    5.192458   5.479211   0.000000
     9  H    5.033924   5.187420   5.674848   0.000000
    10  H    5.679494   5.480912   5.470731   1.543667   0.000000
    11  H    3.746244   3.716417   3.792801   2.249217   2.213670
    12  H    2.249493   2.213426   3.717529   3.595223   3.796259
    13  H    3.596840   3.794308   2.213219   3.745328   3.714998
                   11         12         13
    11  H    0.000000
    12  H    1.683359   0.000000
    13  H    1.683144   1.683294   0.000000
 Stoichiometry    H9O4(1+)
 Framework group  C1[X(H9O4)]
 Deg. of freedom    33
 Full point group                 C1
 Largest Abelian subgroup         C1      NOp   1
 Largest concise Abelian subgroup C1      NOp   1
                         Standard orientation:                         
 ---------------------------------------------------------------------
 Center     Atomic     Atomic              Coordinates (Angstroms)
 Number     Number      Type              X           Y           Z
 ---------------------------------------------------------------------
    1          8             0       -1.149940    2.194298    0.152898
    2          8             0        2.476184   -0.101890    0.152869
    3          8             0       -1.326568   -2.092177    0.153289
    4          8             0        0.000623    0.000031   -0.513670
[...]
     Eigenvalues ---    0.03143   0.03218   0.03218   0.04102   0.08319
     Eigenvalues ---    0.08319   0.10349   0.10349   0.10375   0.38996
     Eigenvalues ---    0.38997   0.39428   0.52521   0.52521   0.52548
     Eigenvalues ---    0.53755   0.53755   0.537661000.000001000.00000
     Eigenvalues --- 1000.000001000.000001000.000001000.00000
 Angle between quadratic step and forces=  79.96 degrees.
 Linear search not attempted -- first point.
 Iteration  1 RMS(Cart)=  0.00064010 RMS(Int)=  0.00000071
 Iteration  2 RMS(Cart)=  0.00000078 RMS(Int)=  0.00000001
 Variable       Old X    -DE/DX   Delta X   Delta X   Delta X     New X
                                 (Linear)    (Quad)   (Total)
    R1        1.82839  -0.00001   0.00000  -0.00002  -0.00002   1.82838
    R2        1.82915  -0.00001   0.00000  -0.00002  -0.00002   1.82914
    R3        2.93985  -0.00001   0.00000  -0.00017  -0.00017   2.93968
    R4        1.82839  -0.00001   0.00000  -0.00001  -0.00001   1.82838
    R5        1.82915  -0.00001   0.00000  -0.00002  -0.00002   1.82914
    R6        2.93985  -0.00001   0.00000  -0.00017  -0.00017   2.93968
    R7        1.82839  -0.00001   0.00000  -0.00001  -0.00001   1.82838
    R8        1.82915  -0.00001   0.00000  -0.00002  -0.00002   1.82914
    R9        2.93989  -0.00001   0.00000  -0.00021  -0.00021   2.93968
   R10        1.91417   0.00002   0.00000   0.00008   0.00008   1.91425
   R11        1.91418   0.00002   0.00000   0.00007   0.00007   1.91425
   R12        1.91418   0.00002   0.00000   0.00007   0.00007   1.91425
    A1        1.84693   0.00000   0.00000   0.00001   0.00001   1.84694
    A2        2.17948   0.00000   0.00000  -0.00025  -0.00025   2.17924
    A3        2.11193   0.00000   0.00000   0.00007   0.00007   2.11200
    A4        1.84692   0.00000   0.00000   0.00002   0.00002   1.84694
    A5        2.17949   0.00000   0.00000  -0.00025  -0.00025   2.17924
    A6        2.11194   0.00000   0.00000   0.00006   0.00006   2.11200
    A7        1.84692   0.00000   0.00000   0.00002   0.00002   1.84694
    A8        2.17954  -0.00001   0.00000  -0.00030  -0.00030   2.17924
    A9        2.11188   0.00000   0.00000   0.00011   0.00011   2.11200
   A10        1.96215   0.00000   0.00000  -0.00003  -0.00003   1.96213
   A11        1.96218   0.00000   0.00000  -0.00005  -0.00005   1.96213
   A12        1.96216   0.00000   0.00000  -0.00004  -0.00004   1.96213
   A13        3.04770   0.00000   0.00000   0.00016   0.00016   3.04786
   A14        3.04779   0.00000   0.00000   0.00007   0.00007   3.04786
   A15        3.04778   0.00000   0.00000   0.00008   0.00008   3.04786
    D1       -2.86460   0.00000   0.00000  -0.00062  -0.00062  -2.86522
    D2        0.90947   0.00000   0.00000  -0.00029  -0.00029   0.90917
    D3       -2.86418   0.00000   0.00000  -0.00103  -0.00103  -2.86522
    D4        0.90987   0.00000   0.00000  -0.00070  -0.00070   0.90917
    D5       -2.86550   0.00000   0.00000   0.00028   0.00028  -2.86522
    D6        0.90856   0.00000   0.00000   0.00061   0.00061   0.90917
    D7       -2.93223   0.00000   0.00000  -0.00123  -0.00123  -2.93346
    D8        1.11562   0.00000   0.00000  -0.00111  -0.00111   1.11451
    D9        1.11446   0.00000   0.00000   0.00005   0.00005   1.11451
   D10       -2.93339   0.00000   0.00000  -0.00008  -0.00008  -2.93346
   D11       -2.93260   0.00000   0.00000  -0.00087  -0.00087  -2.93346
   D12        1.11526   0.00000   0.00000  -0.00075  -0.00075   1.11451
         Item               Value     Threshold  Converged?
 Maximum Force            0.000017     0.000450     YES
 RMS     Force            0.000006     0.000300     YES
 Maximum Displacement     0.001446     0.001800     YES
 RMS     Displacement     0.000641     0.001200     YES
 Predicted change in Energy=-9.004666D-09
 Optimization completed.
    -- Stationary point found.
                           ----------------------------
                           !   Optimized Parameters   !
                           ! (Angstroms and Degrees)  !
 --------------------------                            --------------------------
 ! Name  Definition              Value          Derivative Info.                !
 --------------------------------------------------------------------------------
 ! R1    R(1,5)                  0.9675         -DE/DX =    0.0                 !
 ! R2    R(1,8)                  0.9679         -DE/DX =    0.0                 !
 ! R3    R(1,13)                 1.5557         -DE/DX =    0.0                 !
 ! R4    R(2,6)                  0.9675         -DE/DX =    0.0                 !
 ! R5    R(2,7)                  0.9679         -DE/DX =    0.0                 !
 ! R6    R(2,12)                 1.5557         -DE/DX =    0.0                 !
 ! R7    R(3,9)                  0.9675         -DE/DX =    0.0                 !
 ! R8    R(3,10)                 0.9679         -DE/DX =    0.0                 !
 ! R9    R(3,11)                 1.5557         -DE/DX =    0.0                 !
 ! R10   R(4,11)                 1.0129         -DE/DX =    0.0                 !
 ! R11   R(4,12)                 1.0129         -DE/DX =    0.0                 !
 ! R12   R(4,13)                 1.0129         -DE/DX =    0.0                 !
 ! A1    A(5,1,8)              105.8212         -DE/DX =    0.0                 !
 ! A2    A(5,1,13)             124.8753         -DE/DX =    0.0                 !
 ! A3    A(8,1,13)             121.0045         -DE/DX =    0.0                 !
 ! A4    A(6,2,7)              105.8207         -DE/DX =    0.0                 !
 ! A5    A(6,2,12)             124.8755         -DE/DX =    0.0                 !
 ! A6    A(7,2,12)             121.005          -DE/DX =    0.0                 !
 ! A7    A(9,3,10)             105.8207         -DE/DX =    0.0                 !
 ! A8    A(9,3,11)             124.8784         -DE/DX =    0.0                 !
 ! A9    A(10,3,11)            121.0019         -DE/DX =    0.0                 !
 ! A10   A(11,4,12)            112.4232         -DE/DX =    0.0                 !
 ! A11   A(11,4,13)            112.4246         -DE/DX =    0.0                 !
 ! A12   A(12,4,13)            112.4237         -DE/DX =    0.0                 !
 ! A13   A(3,11,4)             174.6203         -DE/DX =    0.0                 !
 ! A14   A(2,12,4)             174.6253         -DE/DX =    0.0                 !
 ! A15   A(1,13,4)             174.6249         -DE/DX =    0.0                 !
 ! D1    D(5,1,13,4)          -164.1294         -DE/DX =    0.0                 !
 ! D2    D(8,1,13,4)            52.1085         -DE/DX =    0.0                 !
 ! D3    D(6,2,12,4)          -164.1057         -DE/DX =    0.0                 !
 ! D4    D(7,2,12,4)            52.1318         -DE/DX =    0.0                 !
 ! D5    D(9,3,11,4)          -164.1812         -DE/DX =    0.0                 !
 ! D6    D(10,3,11,4)           52.0567         -DE/DX =    0.0                 !
 ! D7    D(12,4,11,3)         -168.0046         -DE/DX =    0.0                 !
 ! D8    D(13,4,11,3)           63.9201         -DE/DX =    0.0                 !
 ! D9    D(11,4,12,2)           63.8536         -DE/DX =    0.0                 !
 ! D10   D(13,4,12,2)         -168.0706         -DE/DX =    0.0                 !
 ! D11   D(11,4,13,1)         -168.0254         -DE/DX =    0.0                 !
 ! D12   D(12,4,13,1)           63.8996         -DE/DX =    0.0                 !
 --------------------------------------------------------------------------------
 GradGradGradGradGradGradGradGradGradGradGradGradGradGradGradGradGradGrad

 1\1\GINC-POLARIS-C17\Freq\RMP2-FC\Aug-CC-pVDZ\H9O4(1+)\G060005\14-Aug-
 2007\0\\#N Geom=AllCheck Guess=Read SCRF=Check GenChk RMP2(FC)/Aug-CC-
 pVDZ Freq\\Title Card Required\\1,1\O,-2.1600510806,-1.2336457506,-0.1
 334387118\O,0.0110464877,2.3883873386,0.7108584578\O,2.1463686127,-1.2
 552585533,-0.1316342864\O,0.0000893546,0.1099051074,-0.4691683822\H,-2
 .2939119507,-1.9771480196,0.4710673934\H,-0.4328792583,2.6155043617,1.
 5400073365\H,0.0190246118,3.200778098,0.1846681158\H,-2.7444967862,-1.
 3979542326,-0.8873264816\H,2.7206895904,-1.252154015,0.6470094301\H,2.
 7261363681,-1.4313466293,-0.8864728925\H,0.8609214363,-0.3938305502,-0
 .2923736394\H,-0.0406507512,0.9916390149,0.0277541175\H,-0.8213406349,
 -0.46122817,-0.3107254573\\Version=AM64L-G03RevD.01\State=1-A\HF=-304.
 5499799\MP2=-305.4368085\RMSD=9.189e-10\RMSF=8.204e-06\ZeroPoint=0.108
 5053\Thermal=0.1195548\Dipole=-0.0003758,-0.0591818,0.2548157\DipoleDe
 riv=-0.8187244,-0.144177,0.0386693,-0.1320765,-0.5700805,0.0024086,0.0
 604336,0.0177088,-0.4984299,-0.5192651,-0.0515008,-0.0328887,-0.036194
 3,-0.8069385,-0.1396895,-0.0251865,-0.1633813,-0.5610294,-0.7326919,0.
 1714832,-0.012301,0.1928386,-0.6654962,0.0161014,-0.0304486,0.0244039,
 -0.4890345,-1.0725805,0.0151664,0.0024509,-0.0147183,-1.0376281,-0.150
 61,-0.0045041,-0.1505417,-0.4239486,0.2828037,-0.0479107,-0.0267271,-0
 .037165,0.2951189,-0.008037,-0.0429797,-0.0156499,0.3426649,0.3326003,
 0.0141539,0.0143196,0.0202443,0.2384078,-0.0136138,0.0183478,0.0059886
 ,0.3495781,0.3402486,0.0389154,0.0108909,0.0364637,0.2843492,-0.035472
 5,0.0077394,-0.0550736,0.3056891,0.3176626,-0.0538726,0.0098767,-0.060
 9705,0.281766,0.0046129,0.026951,0.0122426,0.3308612,0.2471972,0.02385
 43,0.0098475,0.026924,0.3379305,-0.0166644,0.0266943,-0.0286893,0.3354
 623,0.2507023,0.0194695,-0.0197927,0.0200475,0.3458263,0.0165314,-0.03
 57909,0.028514,0.3337461,1.1133384,-0.5075959,0.0266871,-0.5291839,0.5
 009837,-0.0360857,0.0744049,-0.061522,0.2667321,0.2015546,-0.0277666,-
 0.0053816,-0.0367929,1.2407269,0.3802126,-0.0112128,0.4374251,0.438805
 9,1.0571542,0.5497809,-0.015651,0.5505833,0.5550342,-0.0196939,-0.0644
 485,-0.0514252,0.2689027\Polar=37.3586951,-0.00194,37.0311533,0.00947,
 1.4115762,31.2800178\PG=C01 [X(H9O4)]\NImag=0\\0.27360397,0.15476212,0
 .37589707,0.20615112,-0.19218879,0.55226852,0.00062627,-0.00017738,-0.
 00013594,0.12372727,-0.00241423,-0.00119222,0.00034662,-0.06157921,0.4
 9443613,-0.00137972,-0.00075488,0.00061743,-0.21984631,-0.10795790,0.5
 8361078,-0.00197736,-0.00141882,0.00037405,0.00050407,0.00249824,0.001
 31192,0.46435995,0.00127212,0.00158963,-0.00029575,0.00024198,-0.00110
 650,-0.00070502,-0.09269271,0.04352316,-0.00034622,-0.00024094,0.00043
 911,0.00016774,0.00046266,0.00065406,0.01209564,0.07566994,0.69388645,
 -0.02651184,-0.02477227,0.00417995,0.00716196,0.00274783,-0.00056325,-
 0.03190945,0.02027083,-0.00413620,0.61533136,-0.02294487,-0.00874314,0
 .00059778,0.00367128,-0.03479453,-0.02022283,0.02107532,-0.00404682,0.
 00378933,-0.00017183,0.59082666,0.00168734,0.00031008,0.00796451,0.000
 85564,-0.01762186,0.00034298,-0.00223827,0.00146988,0.00866825,0.00073
 375,0.10552035,0.16069359,-0.04145510,-0.08164738,0.03791990,-0.000028
 38,-0.00008666,-0.00013426,-0.00010603,0.00052585,-0.00022917,-0.00595
 527,-0.00219116,-0.00077373,0.03519754,-0.05812734,-0.31345484,0.25831
 105,0.00011394,0.00012938,-0.00006343,0.00010520,-0.00023153,0.0000051
 2,0.00018598,0.00124845,-0.00010489,0.06212034,0.31169371,0.01016194,0
 .21486692,-0.21786995,-0.00002681,-0.00028021,-0.00034392,-0.00032156,
 0.00014701,-0.00027904,-0.00323611,-0.00158024,-0.00008040,-0.02144359
 ,-0.24670807,0.23730628,-0.00039033,0.00009327,0.00018568,-0.11034905,
 0.04732252,0.21012908,0.00002029,-0.00011275,-0.00010203,0.00035615,-0
 .00299098,-0.00084300,0.00005749,-0.00010135,-0.00003656,0.11101036,-0
 .00035354,-0.00005497,0.00036164,0.06853009,-0.07961567,-0.11774116,0.
 00015077,-0.00011840,0.00020099,-0.00131286,-0.00609087,-0.00113046,-0
 .00007432,-0.00012722,-0.00013094,-0.05362825,0.07005760,0.00020474,0.
 00028709,-0.00017147,0.19306704,-0.06803921,-0.38281736,-0.00026374,0.
 00025759,-0.00014461,-0.00025523,0.00214486,0.00094715,0.00002562,-0.0
 0000091,0.00015466,-0.20678459,0.08384122,0.40313235,-0.00009907,0.000
 13286,-0.00005942,-0.00989865,0.01954049,0.00880495,-0.00026556,-0.000
 08677,0.00005501,0.00021983,0.00032421,0.00005431,0.00002444,-0.000029
 66,0.00003107,-0.00070611,-0.01825203,0.01308989,0.01095996,0.00006498
 ,0.00015234,-0.00000065,-0.00563949,-0.38039684,0.23612248,-0.00012833
 ,0.00017572,0.00000056,-0.00029108,-0.00120798,-0.00176299,0.00000374,
 -0.00003792,0.00001860,0.00518310,0.00653641,-0.01371101,-0.00019784,0
 .37671751,-0.00026555,-0.00010477,-0.00009076,0.02393151,0.18851004,-0
 .18179434,0.00026963,-0.00012573,-0.00009734,0.00057603,-0.00523209,-0
 .00396390,-0.00000506,0.00003208,0.00001620,-0.00211429,0.03687188,-0.
 01868520,-0.02171102,-0.22616547,0.19578637,-0.19982932,-0.05660501,-0
 .24435411,-0.00002475,0.00019496,0.00005476,0.00011354,0.00009795,0.00
 011152,-0.00205230,-0.00152179,0.00144900,0.00318377,-0.00433731,0.008
 57995,0.00003455,-0.00003506,-0.00001652,0.00002239,-0.00002859,0.0000
 1001,0.19803447,-0.08403204,-0.04985712,-0.07131442,0.00020319,-0.0001
 9891,0.00005746,-0.00005336,-0.00004833,-0.00005033,-0.00258711,-0.001
 64861,0.00112669,0.02202635,0.00350003,0.03088403,-0.00007023,0.000005
 30,-0.00006944,-0.00011900,-0.00005625,-0.00008173,0.06110909,0.045746
 88,-0.21884621,-0.02975887,-0.32240039,0.00005683,0.00030981,0.0000366
 2,0.00026429,-0.00015866,-0.00010280,0.00395417,0.00342317,-0.00125120
 ,-0.01997628,-0.01187646,-0.01953825,-0.00005585,-0.00004967,-0.000012
 41,-0.00000913,-0.00003081,0.00010006,0.24046717,0.04358139,0.33967905
 ,0.00000956,-0.00012223,0.00016268,0.00003491,0.00001007,0.00019035,-0
 .21701991,0.00963633,-0.25277040,-0.00212626,0.00260931,0.00100467,-0.
 00016699,-0.00000410,-0.00008346,-0.00001682,0.00011763,-0.00002166,0.
 00004393,0.00003660,-0.00001380,-0.00002009,0.00000354,-0.00003305,0.2
 0555539,0.00005665,-0.00004699,0.00002419,-0.00038151,-0.00019884,-0.0
 0026508,0.01376160,-0.00680605,-0.00569934,0.00370410,-0.00243494,-0.0
 0070326,-0.00007477,0.00008230,-0.00001795,0.00013726,-0.00004911,-0.0
 0000866,0.00008603,-0.00005044,0.00004207,-0.00001793,0.00002147,-0.00
 002131,-0.00819679,0.00542469,0.00036637,0.00018341,-0.00020524,-0.000
 02873,-0.00033051,-0.00045295,-0.19661019,-0.01204142,-0.34895495,0.00
 407447,-0.00251287,-0.00022582,0.00004362,-0.00000003,0.00016969,0.000
 07055,-0.00012085,0.00015091,-0.00003549,0.00002562,0.00003393,-0.0000
 4799,0.00002251,0.00000133,0.22715334,0.00922583,0.37321933,0.00009409
 ,-0.00012028,-0.00011266,0.00001110,-0.00006626,-0.00001363,-0.2199034
 7,0.06755870,0.24336132,-0.00217294,0.00189183,-0.00133758,-0.00005956
 ,0.00001227,0.00006666,-0.00000359,0.00001199,0.00000865,0.00001309,0.
 00003045,0.00000596,-0.00011150,0.00003358,0.00003583,0.01201878,-0.00
 565309,-0.02809775,0.20887855,-0.00006303,-0.00017162,-0.00006393,-0.0
 0017611,-0.00008811,0.00009245,0.05871528,-0.02146332,-0.07102122,0.00
 218197,-0.00129012,0.00126149,-0.00002948,0.00006539,0.00003813,0.0000
 2830,0.00001750,-0.00004236,0.00013033,-0.00005143,-0.00005928,-0.0000
 4645,0.00005356,0.00002010,0.00096595,0.00027066,0.00094067,-0.0606504
 4,0.02104042,-0.00032372,-0.00018997,-0.00010975,-0.00003663,0.0003052
 4,0.00003959,0.18846498,-0.06486005,-0.33072282,-0.00468607,0.00243580
 ,-0.00148924,0.00005500,0.00000202,0.00002160,0.00004638,-0.00001212,-
 0.00001117,-0.00001508,-0.00003247,0.00010449,-0.00002885,-0.00000360,
 0.00012408,0.02875721,-0.00697838,-0.02514449,-0.21953742,0.07346852,0
 .35354468,0.00392673,0.00230654,-0.00007206,-0.00150658,-0.00675926,-0
 .00361394,0.00559817,-0.00417007,0.00347180,-0.24587274,0.10159955,-0.
 04647208,0.00022727,-0.00052045,0.00059111,-0.00007513,-0.00051327,0.0
 0058618,0.00066452,0.00017819,-0.00066848,-0.00003396,-0.00008109,-0.0
 0061399,0.00230719,-0.00461732,-0.00634896,0.00130206,-0.00163843,0.00
 666377,0.24326219,-0.00388197,-0.00507110,0.00146202,-0.00016867,0.001
 13847,0.00012960,-0.00147757,-0.00894249,-0.00319294,0.10697905,-0.136
 71425,0.01547772,-0.00160916,0.00000883,-0.00040579,-0.00030513,0.0000
 2693,-0.00052863,-0.00023214,-0.00021543,0.00016897,-0.00020160,-0.000
 16214,0.00033429,-0.00531716,0.00340367,0.00430089,-0.00347798,0.00115
 014,-0.00410272,-0.10254803,0.13011670,0.00101580,0.00088456,-0.000383
 73,-0.00075112,-0.00210592,-0.00147964,0.00125216,-0.00184290,-0.02190
 931,-0.06988152,0.02747353,-0.03600934,0.00045946,0.00016236,0.0003114
 5,0.00011061,-0.00036996,0.00020495,-0.00032200,-0.00010066,-0.0000904
 8,-0.00006458,0.00026867,0.00009303,-0.00342897,0.00391198,0.00046714,
 0.00570697,-0.00488493,0.00378800,0.04247754,-0.01580727,0.05305111,-0
 .00330811,-0.00097485,0.00109945,-0.00856911,-0.00749157,0.00122479,-0
 .00281682,0.00005661,-0.00179770,-0.07648100,0.00864136,0.00542890,-0.
 00041782,0.00006336,0.00005406,-0.00077048,0.00412764,0.00071737,-0.00
 114128,0.00083142,-0.00062280,-0.00009991,-0.00017772,0.00014216,-0.00
 075898,0.00088428,0.00013586,-0.00020555,0.00011359,0.00000391,0.00999
 629,0.02041572,0.01840321,0.07205970,0.00562768,0.00238316,-0.00077926
 ,-0.00547989,0.00001640,0.01127894,-0.00540787,0.00247524,-0.00087745,
 0.00816621,-0.23982354,-0.12045083,0.00012845,-0.00005251,0.00071419,0
 .00437419,0.00971552,-0.00354131,-0.00133595,-0.00131685,0.00586770,-0
 .00049411,0.00072855,-0.00050285,-0.00005486,0.00063314,0.00082912,0.0
 0017212,0.00032965,-0.00059306,0.01147098,-0.01037785,-0.00210360,-0.0
 0732771,0.24768447,0.00394325,0.00144654,-0.00092246,0.00191203,0.0081
 9923,-0.01670253,-0.00380708,0.00155423,-0.00118727,0.00698317,-0.1472
 4743,-0.10227926,0.00019018,0.00019278,0.00062735,-0.00042156,-0.00074
 769,-0.00276623,-0.00016312,0.00581488,0.00869797,0.00008819,0.0000054
 9,-0.00027042,-0.00064622,0.00064982,0.00067423,-0.00021298,-0.0000733
 9,-0.00022742,0.00897954,0.00854873,0.00409006,-0.00710019,0.11385344,
 0.10667490,-0.00468948,0.00854343,-0.00533864,-0.00168905,0.00608309,0
 .00383527,0.00340260,-0.00259808,0.00011869,-0.22998751,-0.10999224,0.
 04045107,0.00949863,0.00051911,0.00566330,0.00083267,0.00123122,-0.000
 35775,0.00016253,-0.00004316,0.00060787,0.00078311,0.00374479,-0.00538
 595,0.00013928,0.00031148,-0.00067509,0.00013897,0.00046854,0.00063653
 ,-0.01979602,-0.00817534,0.00502245,0.01251307,-0.00983925,-0.00974521
 ,0.22869121,0.01003347,-0.00143020,0.00353950,0.00084178,0.00187124,0.
 00002938,0.00487224,-0.00500032,0.00095361,-0.11510081,-0.15528031,0.0
 1660809,0.00090820,-0.00282408,0.00245432,0.00007004,-0.00030300,-0.00
 058923,0.00003946,-0.00024886,0.00027631,0.00188586,0.00191556,-0.0052
 7013,0.00031572,-0.00024957,-0.00052237,0.00025711,0.00013728,0.000560
 81,0.00529266,0.02563851,-0.00548585,-0.01916213,-0.01239538,0.0078033
 8,0.10974640,0.14816914,-0.00236912,0.00525961,-0.01913581,0.00083473,
 -0.00179798,-0.00171071,-0.00079184,0.00093088,-0.00024971,0.06225685,
 0.03141064,-0.03331734,0.00386832,0.00004838,-0.00049567,-0.00018442,-
 0.00097288,0.00001842,0.00028005,-0.00017808,-0.00001697,-0.00624855,-
 0.00442670,0.00354131,-0.00027069,-0.00015990,0.00026690,0.00012663,0.
 00032375,0.00008246,-0.00498041,-0.00638487,-0.00213323,-0.01768901,-0
 .00369504,0.00359107,-0.03483254,-0.02035782,0.04955927\\0.00000462,0.
 00000575,0.00000630,0.00000317,-0.00000844,0.00000322,-0.00000735,-0.0
 0000056,0.00000484,0.00000036,-0.00000647,0.00001467,-0.00000407,-0.00
 000729,0.00000562,-0.00000256,0.00000505,0.00000716,-0.00000075,0.0000
 0728,-0.00000525,-0.00000493,-0.00000210,-0.00000889,0.00000744,-0.000
 00242,0.00000541,0.00000521,-0.00000060,-0.00000765,-0.00001854,0.0000
 1352,-0.00000476,0.00000024,-0.00001713,-0.00001378,0.00001716,0.00001
 340,-0.00000689\\\@


 ONE BIG VICE IN A MAN IS APT TO KEEP OUT MANY SMALLER ONES.

                           -- BRET HARTE
 Job cpu time:  0 days  0 hours 58 minutes 59.7 seconds.
 File lengths (MBytes):  RWF=   4016 Int=      0 D2E=      0 Chk=      8 Scr=      1
 Normal termination of Gaussian 03 at Tue Aug 14 20:21:42 2007.
