 Entering Gaussian System, Link 0=g03
 Initial command:
 /usr/local/g03-em64t/g03/l1.exe /usr/scratch/Gau-6904.inp -scrdir=/usr/scratch/
 Entering Link 1 = /usr/local/g03-em64t/g03/l1.exe PID=      6905.
  
 Copyright (c) 1988,1990,1992,1993,1995,1998,2003,2004, Gaussian, Inc.
                  All Rights Reserved.
  
 This is the Gaussian(R) 03 program.  It is based on the
 the Gaussian(R) 98 system (copyright 1998, Gaussian, Inc.),
 the Gaussian(R) 94 system (copyright 1995, Gaussian, Inc.),
 the Gaussian 92(TM) system (copyright 1992, Gaussian, Inc.),
 the Gaussian 90(TM) system (copyright 1990, Gaussian, Inc.),
 the Gaussian 88(TM) system (copyright 1988, Gaussian, Inc.),
 the Gaussian 86(TM) system (copyright 1986, Carnegie Mellon
 University), and the Gaussian 82(TM) system (copyright 1983,
 Carnegie Mellon University). Gaussian is a federally registered
 trademark of Gaussian, Inc.
  
 This software contains proprietary and confidential information,
 including trade secrets, belonging to Gaussian, Inc.
  
 This software is provided under written license and may be
 used, copied, transmitted, or stored only in accord with that
 written license.
  
 The following legend is applicable only to US Government
 contracts under FAR:
  
                    RESTRICTED RIGHTS LEGEND
  
 Use, reproduction and disclosure by the US Government is
 subject to restrictions as set forth in subparagraphs (a)
 and (c) of the Commercial Computer Software - Restricted
 Rights clause in FAR 52.227-19.
  
 Gaussian, Inc.
 340 Quinnipiac St., Bldg. 40, Wallingford CT 06492
  
  
 ---------------------------------------------------------------
 Warning -- This program may not be used in any manner that
 competes with the business of Gaussian, Inc. or will provide
 assistance to any competitor of Gaussian, Inc.  The licensee
 of this program is prohibited from giving any competitor of
 Gaussian, Inc. access to this program.  By using this program,
 the user acknowledges that Gaussian, Inc. is engaged in the
 business of creating and licensing software in the field of
 computational chemistry and represents and warrants to the
 licensee that it is not a competitor of Gaussian, Inc. and that
 it will not use this program in any manner prohibited above.
 ---------------------------------------------------------------
  

 Cite this work as:
 Gaussian 03, Revision D.01,
 M. J. Frisch, G. W. Trucks, H. B. Schlegel, G. E. Scuseria, 
 M. A. Robb, J. R. Cheeseman, J. A. Montgomery, Jr., T. Vreven, 
 K. N. Kudin, J. C. Burant, J. M. Millam, S. S. Iyengar, J. Tomasi, 
 V. Barone, B. Mennucci, M. Cossi, G. Scalmani, N. Rega, 
 G. A. Petersson, H. Nakatsuji, M. Hada, M. Ehara, K. Toyota, 
 R. Fukuda, J. Hasegawa, M. Ishida, T. Nakajima, Y. Honda, O. Kitao, 
 H. Nakai, M. Klene, X. Li, J. E. Knox, H. P. Hratchian, J. B. Cross, 
 V. Bakken, C. Adamo, J. Jaramillo, R. Gomperts, R. E. Stratmann, 
 O. Yazyev, A. J. Austin, R. Cammi, C. Pomelli, J. W. Ochterski, 
 P. Y. Ayala, K. Morokuma, G. A. Voth, P. Salvador, J. J. Dannenberg, 
 V. G. Zakrzewski, S. Dapprich, A. D. Daniels, M. C. Strain, 
 O. Farkas, D. K. Malick, A. D. Rabuck, K. Raghavachari, 
 J. B. Foresman, J. V. Ortiz, Q. Cui, A. G. Baboul, S. Clifford, 
 J. Cioslowski, B. B. Stefanov, G. Liu, A. Liashenko, P. Piskorz, 
 I. Komaromi, R. L. Martin, D. J. Fox, T. Keith, M. A. Al-Laham, 
 C. Y. Peng, A. Nanayakkara, M. Challacombe, P. M. W. Gill, 
 B. Johnson, W. Chen, M. W. Wong, C. Gonzalez, and J. A. Pople, 
 Gaussian, Inc., Wallingford CT, 2004.
 
 ******************************************
 Gaussian 03:  AM64L-G03RevD.01 13-Oct-2005
                 7-May-2007 
 ******************************************
 %chk=pW4-MP2.chk
 %mem=64MW
 %nproc=2
 Will use up to    2 processors via shared memory.
 --------------------------
 # opt freq mp2/aug-cc-pvDZ
 --------------------------
 1/18=20,38=1/1,3;
 2/9=110,17=6,18=5,40=1/2;
 3/5=16,7=10,11=9,16=1,25=1,30=1/1,2,3;
 4//1;
 5/5=2,38=5/2;
 8/6=4,10=1/1;
 9/15=2,16=-3/6;
 10/5=1/2;
 6/7=2,8=2,9=2,10=2/1;
 7/12=2/1,2,3,16;
 1/18=20/3(3);
 2/9=110/2;
 6/7=2,8=2,9=2,10=2/1;
 99//99;
 2/9=110/2;
 3/5=16,7=10,11=9,16=1,25=1,30=1/1,2,3;
 4/5=5,16=3/1;
 5/5=2,38=5/2;
 8/6=4,10=1/1;
 9/15=2,16=-3/6;
 10/5=1/2;
 7/12=2/1,2,3,16;
 1/18=20/3(-8);
 2/9=110/2;
 6/7=2,8=2,9=2,10=2/1;
 99//99;
 -------------------
 Title Card Required
 -------------------
 Symbolic Z-matrix:
 Charge =  1 Multiplicity = 1
 O                    -0.63472   1.20795  -2.14156 
 O                    -0.36185   0.08393   0.1796 
 O                     1.32662   1.21744   1.78842 
 O                    -0.33005  -2.50932   0.17354 
 H                    -1.49604   1.62594  -2.32307 
 H                     0.94786   1.71256   2.53731 
 H                     0.06846   1.76518  -2.52114 
 H                    -1.08115  -2.95413   0.60657 
 H                    -0.40014   0.57393  -0.6915 
 H                     0.32048   0.43999   0.81851 
 H                     2.12484   0.75076   2.09505 
 H                    -0.35336  -0.91198   0.08731 
 H                    -0.08934  -3.01123  -0.62596 
 

 GradGradGradGradGradGradGradGradGradGradGradGradGradGradGradGradGradGrad
 Berny optimization.
 Initialization pass.
                           ----------------------------
                           !    Initial Parameters    !
                           ! (Angstroms and Degrees)  !
 --------------------------                            --------------------------
 ! Name  Definition              Value          Derivative Info.                !
 --------------------------------------------------------------------------------
 ! R1    R(1,5)                  0.9744         estimate D2E/DX2                !
 ! R2    R(1,7)                  0.9742         estimate D2E/DX2                !
 ! R3    R(1,9)                  1.5999         estimate D2E/DX2                !
 ! R4    R(2,9)                  1.0002         estimate D2E/DX2                !
 ! R5    R(2,10)                 1.0003         estimate D2E/DX2                !
 ! R6    R(2,12)                 1.0002         estimate D2E/DX2                !
 ! R7    R(3,6)                  0.9744         estimate D2E/DX2                !
 ! R8    R(3,10)                 1.5992         estimate D2E/DX2                !
 ! R9    R(3,11)                 0.9741         estimate D2E/DX2                !
 ! R10   R(4,8)                  0.9744         estimate D2E/DX2                !
 ! R11   R(4,12)                 1.5998         estimate D2E/DX2                !
 ! R12   R(4,13)                 0.9742         estimate D2E/DX2                !
 ! A1    A(5,1,7)              108.6681         estimate D2E/DX2                !
 ! A2    A(5,1,9)              117.931          estimate D2E/DX2                !
 ! A3    A(7,1,9)              118.293          estimate D2E/DX2                !
 ! A4    A(9,2,10)             114.0803         estimate D2E/DX2                !
 ! A5    A(9,2,12)             114.0643         estimate D2E/DX2                !
 ! A6    A(10,2,12)            114.0528         estimate D2E/DX2                !
 ! A7    A(6,3,10)             117.9437         estimate D2E/DX2                !
 ! A8    A(6,3,11)             108.6645         estimate D2E/DX2                !
 ! A9    A(10,3,11)            118.2633         estimate D2E/DX2                !
 ! A10   A(8,4,12)             117.9364         estimate D2E/DX2                !
 ! A11   A(8,4,13)             108.6613         estimate D2E/DX2                !
 ! A12   A(12,4,13)            118.2788         estimate D2E/DX2                !
 ! A13   A(1,9,2)              171.541          estimate D2E/DX2                !
 ! A14   A(2,10,3)             171.7302         estimate D2E/DX2                !
 ! A15   A(2,12,4)             171.6083         estimate D2E/DX2                !
 ! D1    D(5,1,9,2)             63.9376         estimate D2E/DX2                !
 ! D2    D(7,1,9,2)           -161.8899         estimate D2E/DX2                !
 ! D3    D(10,2,9,1)          -179.2163         estimate D2E/DX2                !
 ! D4    D(12,2,9,1)            47.2721         estimate D2E/DX2                !
 ! D5    D(9,2,10,3)            46.9479         estimate D2E/DX2                !
 ! D6    D(12,2,10,3)         -179.5351         estimate D2E/DX2                !
 ! D7    D(9,2,12,4)           179.7597         estimate D2E/DX2                !
 ! D8    D(10,2,12,4)           46.2352         estimate D2E/DX2                !
 ! D9    D(6,3,10,2)            63.2962         estimate D2E/DX2                !
 ! D10   D(11,3,10,2)         -162.5588         estimate D2E/DX2                !
 ! D11   D(8,4,12,2)            64.0078         estimate D2E/DX2                !
 ! D12   D(13,4,12,2)         -161.8422         estimate D2E/DX2                !
 --------------------------------------------------------------------------------
 Trust Radius=3.00D-01 FncErr=1.00D-07 GrdErr=1.00D-07
 Number of steps in this run=  49 maximum allowed number of steps= 100.
 GradGradGradGradGradGradGradGradGradGradGradGradGradGradGradGradGradGrad

                          Input orientation:                          
 ---------------------------------------------------------------------
 Center     Atomic     Atomic              Coordinates (Angstroms)
 Number     Number      Type              X           Y           Z
 ---------------------------------------------------------------------
    1          8             0       -0.634719    1.207949   -2.141565
    2          8             0       -0.361852    0.083929    0.179600
    3          8             0        1.326619    1.217444    1.788421
    4          8             0       -0.330048   -2.509322    0.173544
    5          1             0       -1.496037    1.625939   -2.323068
    6          1             0        0.947863    1.712564    2.537308
    7          1             0        0.068463    1.765177   -2.521142
    8          1             0       -1.081147   -2.954133    0.606567
    9          1             0       -0.400141    0.573932   -0.691497
   10          1             0        0.320478    0.439989    0.818511
   11          1             0        2.124835    0.750758    2.095046
   12          1             0       -0.353363   -0.911979    0.087305
   13          1             0       -0.089335   -3.011231   -0.625956
 ---------------------------------------------------------------------
                    Distance matrix (angstroms):
                    1          2          3          4          5
     1  O    0.000000
     2  O    2.593392   0.000000
     3  O    4.392235   2.593086   0.000000
     4  O    4.389836   2.593453   4.386474   0.000000
     5  H    0.974437   3.150796   5.003858   4.969204   0.000000
     6  H    4.964983   3.150650   0.974388   5.004474   5.440901
     7  H    0.974190   3.210261   4.522754   5.068677   1.583124
     8  H    5.007440   3.151112   4.959453   0.974431   5.452702
     9  H    1.599907   1.000189   3.089628   3.203071   2.229289
    10  H    3.203781   1.000280   1.599213   3.088301   3.817816
    11  H    5.076715   3.208926   0.974148   4.510736   5.778961
    12  H    3.088870   1.000212   3.201652   1.599839   3.681933
    13  H    4.516192   3.209860   5.071078   0.974195   5.134427
                    6          7          8          9         10
     6  H    0.000000
     7  H    5.134591   0.000000
     8  H    5.442674   5.777201   0.000000
     9  H    3.679508   2.232992   3.820469   0.000000
    10  H    2.228749   3.601794   3.678252   1.678498   0.000000
    11  H    1.583013   5.154309   5.120557   3.764518   2.232000
    12  H    3.818891   3.761529   2.229281   1.678288   1.678255
    13  H    5.778950   5.141080   1.583055   3.599207   3.763688
                   11         12         13
    11  H    0.000000
    12  H    3.596830   0.000000
    13  H    5.143828   2.232781   0.000000
 Stoichiometry    H9O4(1+)
 Framework group  C1[X(H9O4)]
 Deg. of freedom    33
 Full point group                 C1
 Largest Abelian subgroup         C1      NOp   1
 Largest concise Abelian subgroup C1      NOp   1
                         Standard orientation:                         
 ---------------------------------------------------------------------
 Center     Atomic     Atomic              Coordinates (Angstroms)
 Number     Number      Type              X           Y           Z
 ---------------------------------------------------------------------
    1          8             0       -2.511589   -0.349023    0.135883
    2          8             0       -0.001114   -0.000963   -0.413710
    3          8             0        1.559734   -1.997069    0.137120
    4          8             0        0.952666    2.347195    0.136249
    5          1             0       -3.119870   -0.396824   -0.623878
    6          1             0        1.894253   -2.509162   -0.621359
    7          1             0       -2.799291   -0.994172    0.806746
    8          1             0        1.228821    2.892680   -0.622499
    9          1             0       -0.945943   -0.214887   -0.164887
   10          1             0        0.657230   -0.712070   -0.165775
   11          1             0        2.272009   -1.915429    0.796637
   12          1             0        0.286170    0.924651   -0.166467
   13          1             0        0.529038    2.924097    0.797142
 ---------------------------------------------------------------------
 Rotational constants (GHZ):      2.6550001      2.6473895      1.3747917
 Standard basis: Aug-CC-pVDZ (5D, 7F)
 There are   173 symmetry adapted basis functions of A   symmetry.
 Integral buffers will be    131072 words long.
 Raffenetti 1 integral format.
 Two-electron integral symmetry is turned on.
   173 basis functions,   271 primitive gaussians,   181 cartesian basis functions
    20 alpha electrons       20 beta electrons
       nuclear repulsion energy       141.7744214141 Hartrees.
 NAtoms=   13 NActive=   13 NUniq=   13 SFac= 7.50D-01 NAtFMM=   80 NAOKFM=F Big=F
 One-electron integrals computed using PRISM.
 NBasis=   173 RedAO= T  NBF=   173
 NBsUse=   173 1.00D-06 NBFU=   173
 Harris functional with IExCor=  205 diagonalized for initial guess.
 ExpMin= 2.97D-02 ExpMax= 1.17D+04 ExpMxC= 4.01D+02 IAcc=3 IRadAn=         5 AccDes= 0.00D+00
 HarFok:  IExCor= 205 AccDes= 0.00D+00 IRadAn=         5 IDoV=1
 ScaDFX=  1.000000  1.000000  1.000000  1.000000
 Initial guess orbital symmetries:
       Occupied  (A) (A) (A) (A) (A) (A) (A) (A) (A) (A) (A) (A)
                 (A) (A) (A) (A) (A) (A) (A) (A)
       Virtual   (A) (A) (A) (A) (A) (A) (A) (A) (A) (A) (A) (A)
                 (A) (A) (A) (A) (A) (A) (A) (A) (A) (A) (A) (A)
                 (A) (A) (A) (A) (A) (A) (A) (A) (A) (A) (A) (A)
                 (A) (A) (A) (A) (A) (A) (A) (A) (A) (A) (A) (A)
                 (A) (A) (A) (A) (A) (A) (A) (A) (A) (A) (A) (A)
                 (A) (A) (A) (A) (A) (A) (A) (A) (A) (A) (A) (A)
                 (A) (A) (A) (A) (A) (A) (A) (A) (A) (A) (A) (A)
                 (A) (A) (A) (A) (A) (A) (A) (A) (A) (A) (A) (A)
                 (A) (A) (A) (A) (A) (A) (A) (A) (A) (A) (A) (A)
                 (A) (A) (A) (A) (A) (A) (A) (A) (A) (A) (A) (A)
                 (A) (A) (A) (A) (A) (A) (A) (A) (A) (A) (A) (A)
                 (A) (A) (A) (A) (A) (A) (A) (A) (A) (A) (A) (A)
                 (A) (A) (A) (A) (A) (A) (A) (A) (A)
 The electronic state of the initial guess is 1-A.
 Requested convergence on RMS density matrix=1.00D-08 within 128 cycles.
 Requested convergence on MAX density matrix=1.00D-06.
 Requested convergence on             energy=1.00D-06.
 No special actions if energy rises.
 SCF Done:  E(RHF) =  -304.547715958     A.U. after   10 cycles
             Convg  =    0.6755D-08             -V/T =  2.0019
             S**2   =   0.0000
 ExpMin= 2.97D-02 ExpMax= 1.17D+04 ExpMxC= 4.01D+02 IAcc=3 IRadAn=         5 AccDes= 0.00D+00
 HarFok:  IExCor= 205 AccDes= 0.00D+00 IRadAn=         5 IDoV=1
 ScaDFX=  1.000000  1.000000  1.000000  1.000000
 Range of M.O.s used for correlation:     5   173
 NBasis=   173 NAE=    20 NBE=    20 NFC=     4 NFV=     0
 NROrb=    169 NOA=    16 NOB=    16 NVA=   153 NVB=   153

 **** Warning!!: The largest alpha MO coefficient is  0.12650837D+02

 Fully direct method using O(ONN) memory.
 JobTyp=1 Pass  1:  I=   5 to  12 NPSUse=  2 ParTrn=T ParDer=T DoDerP=T.
 JobTyp=1 Pass  2:  I=  13 to  20 NPSUse=  2 ParTrn=T ParDer=T DoDerP=T.
 Spin components of T(2) and E(2):
     alpha-alpha T2 =       0.3054747925D-01 E2=     -0.1136794850D+00
     alpha-beta  T2 =       0.1709336490D+00 E2=     -0.6592885161D+00
     beta-beta   T2 =       0.3054747925D-01 E2=     -0.1136794850D+00
 ANorm=    0.1109967841D+01
 E2 =    -0.8866474860D+00 EUMP2 =    -0.30543436344365D+03
 DoAtom=TTTTTTTTTTTTT
          Differentiating once with respect to electric field.
                with respect to dipole field.
          Differentiating once with respect to nuclear coordinates.
          There are   1 degrees of freedom in the 1st order CPHF.
 Petite list used in FoFDir.
 MinBra= 0 MaxBra= 2 Meth= 1.
 IRaf=       0 NMat=   1 IRICut=       1 DoRegI=T DoRafI=F ISym2E= 1 JSym2E=1.
     1 vectors were produced by pass  0.
 AX will form   1 AO Fock derivatives at one time.
     1 vectors were produced by pass  1.
     1 vectors were produced by pass  2.
     1 vectors were produced by pass  3.
     1 vectors were produced by pass  4.
     1 vectors were produced by pass  5.
     1 vectors were produced by pass  6.
     1 vectors were produced by pass  7.
     1 vectors were produced by pass  8.
     1 vectors were produced by pass  9.
     1 vectors were produced by pass 10.
     1 vectors were produced by pass 11.
 Inv2:  IOpt= 1 Iter= 1 AM= 2.46D-16 Conv= 1.00D-12.
 Inverted reduced A of dimension   12 with in-core refinement.
 End of Minotr Frequency-dependent properties file   721 does not exist.

 **********************************************************************

            Population analysis using the SCF density.

 **********************************************************************

 Orbital symmetries:
       Occupied  (A) (A) (A) (A) (A) (A) (A) (A) (A) (A) (A) (A)
                 (A) (A) (A) (A) (A) (A) (A) (A)
       Virtual   (A) (A) (A) (A) (A) (A) (A) (A) (A) (A) (A) (A)
                 (A) (A) (A) (A) (A) (A) (A) (A) (A) (A) (A) (A)
                 (A) (A) (A) (A) (A) (A) (A) (A) (A) (A) (A) (A)
                 (A) (A) (A) (A) (A) (A) (A) (A) (A) (A) (A) (A)
                 (A) (A) (A) (A) (A) (A) (A) (A) (A) (A) (A) (A)
                 (A) (A) (A) (A) (A) (A) (A) (A) (A) (A) (A) (A)
                 (A) (A) (A) (A) (A) (A) (A) (A) (A) (A) (A) (A)
                 (A) (A) (A) (A) (A) (A) (A) (A) (A) (A) (A) (A)
                 (A) (A) (A) (A) (A) (A) (A) (A) (A) (A) (A) (A)
                 (A) (A) (A) (A) (A) (A) (A) (A) (A) (A) (A) (A)
                 (A) (A) (A) (A) (A) (A) (A) (A) (A) (A) (A) (A)
                 (A) (A) (A) (A) (A) (A) (A) (A) (A) (A) (A) (A)
                 (A) (A) (A) (A) (A) (A) (A) (A) (A)
 The electronic state is 1-A.
 Alpha  occ. eigenvalues --  -20.81827 -20.76283 -20.76280 -20.76277  -1.62640
 Alpha  occ. eigenvalues --   -1.53694  -1.53687  -1.53274  -0.98183  -0.98175
 Alpha  occ. eigenvalues --   -0.90343  -0.90296  -0.90291  -0.80455  -0.76307
 Alpha  occ. eigenvalues --   -0.76300  -0.76220  -0.70130  -0.69603  -0.69598
 Alpha virt. eigenvalues --   -0.09242  -0.06943  -0.06938  -0.05608  -0.03756
 Alpha virt. eigenvalues --   -0.03745  -0.02510  -0.01344  -0.01314   0.04841
 Alpha virt. eigenvalues --    0.05195   0.06089   0.06109   0.09319   0.09436
 Alpha virt. eigenvalues --    0.09446   0.09919   0.09929   0.10383   0.12332
 Alpha virt. eigenvalues --    0.12348   0.12684   0.14323   0.14406   0.14433
 Alpha virt. eigenvalues --    0.17232   0.18319   0.18379   0.19898   0.19960
 Alpha virt. eigenvalues --    0.22497   0.23913   0.23947   0.27315   0.29195
 Alpha virt. eigenvalues --    0.30668   0.30695   0.33428   0.33487   0.35563
 Alpha virt. eigenvalues --    0.38463   0.38477   0.39186   0.40419   0.40464
 Alpha virt. eigenvalues --    0.40710   0.42570   0.44348   0.44362   0.46683
 Alpha virt. eigenvalues --    0.46713   0.49645   0.51598   0.51956   0.51988
 Alpha virt. eigenvalues --    0.53358   0.53367   0.54943   0.65647   0.65668
 Alpha virt. eigenvalues --    0.71002   0.71192   0.71210   0.71688   0.76541
 Alpha virt. eigenvalues --    0.79518   0.79577   0.82417   0.83124   0.83160
 Alpha virt. eigenvalues --    0.98694   0.99412   0.99421   1.02730   1.02750
 Alpha virt. eigenvalues --    1.08218   1.09021   1.09060   1.11582   1.14133
 Alpha virt. eigenvalues --    1.14179   1.22600   1.27135   1.27172   1.29359
 Alpha virt. eigenvalues --    1.31796   1.31929   1.33165   1.38875   1.38938
 Alpha virt. eigenvalues --    1.46518   1.46564   1.50359   1.57375   1.77552
 Alpha virt. eigenvalues --    1.77602   1.78395   1.81337   1.84344   1.84363
 Alpha virt. eigenvalues --    1.84912   1.88345   1.88397   1.94513   1.97737
 Alpha virt. eigenvalues --    1.97749   1.99698   2.08014   2.08134   2.22298
 Alpha virt. eigenvalues --    2.28254   2.28281   2.29925   2.30337   2.30413
 Alpha virt. eigenvalues --    2.34974   2.42683   2.42689   2.44463   2.52637
 Alpha virt. eigenvalues --    2.52713   2.60752   2.60826   2.64244   2.68410
 Alpha virt. eigenvalues --    2.68454   2.78247   2.85594   2.85662   2.88399
 Alpha virt. eigenvalues --    2.94630   2.94650   2.98259   3.52617   3.52632
 Alpha virt. eigenvalues --    3.53995   3.55316   3.55336   3.57322   3.57340
 Alpha virt. eigenvalues --    3.57892   3.62061   3.62827   3.62886   3.90474
 Alpha virt. eigenvalues --    3.90494   3.91329   4.10421   4.11856   4.11901
 Alpha virt. eigenvalues --    4.12823   4.24304   4.24356
          Condensed to atoms (all electrons):
              1          2          3          4          5          6
     1  O    7.886983  -0.047437   0.001948   0.001984   0.368700   0.000457
     2  O   -0.047437   7.610347  -0.047725  -0.047632   0.000030   0.000025
     3  O    0.001948  -0.047725   7.886338   0.001991  -0.000138   0.368712
     4  O    0.001984  -0.047632   0.001991   7.886219   0.000449  -0.000137
     5  H    0.368700   0.000030  -0.000138   0.000449   0.459015  -0.000089
     6  H    0.000457   0.000025   0.368712  -0.000137  -0.000089   0.459059
     7  H    0.364862  -0.001179  -0.000349  -0.000091  -0.042522   0.000041
     8  H   -0.000139   0.000023   0.000452   0.368706  -0.000089  -0.000090
     9  H   -0.048959   0.281747   0.000414  -0.017218  -0.004350   0.001992
    10  H   -0.017329   0.281659  -0.048735   0.000409  -0.000809  -0.004357
    11  H   -0.000099  -0.001203   0.365048  -0.000356  -0.000091  -0.042519
    12  H    0.000488   0.281719  -0.017298  -0.048579   0.002006  -0.000802
    13  H   -0.000351  -0.001188  -0.000095   0.364935   0.000043  -0.000091
              7          8          9         10         11         12
     1  O    0.364862  -0.000139  -0.048959  -0.017329  -0.000099   0.000488
     2  O   -0.001179   0.000023   0.281747   0.281659  -0.001203   0.281719
     3  O   -0.000349   0.000452   0.000414  -0.048735   0.365048  -0.017298
     4  O   -0.000091   0.368706  -0.017218   0.000409  -0.000356  -0.048579
     5  H   -0.042522  -0.000089  -0.004350  -0.000809  -0.000091   0.002006
     6  H    0.000041  -0.000090   0.001992  -0.004357  -0.042519  -0.000802
     7  H    0.456833  -0.000091  -0.000146  -0.001227   0.000009   0.000861
     8  H   -0.000091   0.458990  -0.000803   0.001998   0.000043  -0.004342
     9  H   -0.000146  -0.000803   0.352659  -0.035837   0.000870  -0.035629
    10  H   -0.001227   0.001998  -0.035837   0.352499  -0.000135  -0.035586
    11  H    0.000009   0.000043   0.000870  -0.000135   0.456794  -0.001236
    12  H    0.000861  -0.004342  -0.035629  -0.035586  -0.001236   0.352415
    13  H    0.000010  -0.042492  -0.001227   0.000867   0.000011  -0.000142
             13
     1  O   -0.000351
     2  O   -0.001188
     3  O   -0.000095
     4  O    0.364935
     5  H    0.000043
     6  H   -0.000091
     7  H    0.000010
     8  H   -0.042492
     9  H   -0.001227
    10  H    0.000867
    11  H    0.000011
    12  H   -0.000142
    13  H    0.456730
 Mulliken atomic charges:
              1
     1  O   -0.511106
     2  O   -0.309183
     3  O   -0.510562
     4  O   -0.510678
     5  H    0.217847
     6  H    0.217800
     7  H    0.222990
     8  H    0.217836
     9  H    0.506489
    10  H    0.506584
    11  H    0.222865
    12  H    0.506126
    13  H    0.222992
 Sum of Mulliken charges=   1.00000
 Atomic charges with hydrogens summed into heavy atoms:
              1
     1  O   -0.070268
     2  O    1.210015
     3  O   -0.069897
     4  O   -0.069850
     5  H    0.000000
     6  H    0.000000
     7  H    0.000000
     8  H    0.000000
     9  H    0.000000
    10  H    0.000000
    11  H    0.000000
    12  H    0.000000
    13  H    0.000000
 Sum of Mulliken charges=   1.00000
 Electronic spatial extent (au):  <R**2>=   796.0219
 Charge=     1.0000 electrons
 Dipole moment (field-independent basis, Debye):
    X=     0.0055    Y=    -0.0041    Z=    -0.1922  Tot=     0.1923
 Quadrupole moment (field-independent basis, Debye-Ang):
   XX=    -1.3978   YY=    -1.4715   ZZ=   -20.3250
   XY=     0.0450   XZ=    -0.0544   YZ=     0.0339
 Traceless Quadrupole moment (field-independent basis, Debye-Ang):
   XX=     6.3336   YY=     6.2600   ZZ=   -12.5936
   XY=     0.0450   XZ=    -0.0544   YZ=     0.0339
 Octapole moment (field-independent basis, Debye-Ang**2):
  XXX=   -27.3042  YYY=    35.6125  ZZZ=     2.1919  XYY=    27.4918
  XXY=   -35.6669  XXZ=    -3.4282  XZZ=    -0.1416  YZZ=    -0.0129
  YYZ=    -3.6504  XYZ=    -0.0557
 Hexadecapole moment (field-independent basis, Debye-Ang**3):
 XXXX=  -196.4536 YYYY=  -195.9080 ZZZZ=   -30.3404 XXXY=     0.4521
 XXXZ=    21.9551 YYYX=     0.0030 YYYZ=    19.7302 ZZZX=    -0.1428
 ZZZY=    -0.0016 XXYY=   -65.5540 XXZZ=   -43.9754 YYZZ=   -44.2482
 XXYZ=   -19.3429 YYXZ=   -22.3406 ZZXY=     0.1545
 N-N= 1.417744214141D+02 E-N=-9.982198750880D+02  KE= 3.039728288626D+02
 ***** Axes restored to original set *****
 -------------------------------------------------------------------
 Center     Atomic                   Forces (Hartrees/Bohr)
 Number     Number              X              Y              Z
 -------------------------------------------------------------------
    1          8           0.001472644    0.000116733    0.004359856
    2          8          -0.006465913    0.001494014    0.003205073
    3          8          -0.002330503   -0.003681445   -0.001433139
    4          8          -0.000896436    0.003983783   -0.002066118
    5          1           0.008768847    0.000632873   -0.001638890
    6          1           0.006957994   -0.004982526   -0.002457944
    7          1          -0.009051387   -0.000953325   -0.000175825
    8          1           0.005852256   -0.000725715   -0.006717202
    9          1          -0.001111905    0.003027472   -0.009292842
   10          1           0.006596089    0.005160538    0.005120155
   11          1          -0.005781094    0.006427787    0.002709939
   12          1           0.001088675   -0.009724921    0.000893947
   13          1          -0.005099268   -0.000775267    0.007492990
 -------------------------------------------------------------------
 Cartesian Forces:  Max     0.009724921 RMS     0.004787833

 GradGradGradGradGradGradGradGradGradGradGradGradGradGradGradGradGradGrad
 Berny optimization.
 Internal  Forces:  Max     0.007269459 RMS     0.004264312
 Search for a local minimum.
 Step number   1 out of a maximum of  49
 All quantities printed in internal units (Hartrees-Bohrs-Radians)
 Second derivative matrix not updated -- first step.
     Eigenvalues ---    0.00230   0.00230   0.00230   0.01025   0.01026
     Eigenvalues ---    0.01026   0.03037   0.04135   0.04138   0.04140
     Eigenvalues ---    0.09096   0.09097   0.09109   0.14508   0.14509
     Eigenvalues ---    0.16000   0.16000   0.16000   0.16000   0.16000
     Eigenvalues ---    0.16000   0.25000   0.25000   0.25000   0.47639
     Eigenvalues ---    0.47651   0.47655   0.52481   0.52482   0.52490
     Eigenvalues ---    0.52529   0.52530   0.525381000.000001000.00000
     Eigenvalues --- 1000.000001000.000001000.000001000.00000
 RFO step:  Lambda=-2.80434577D-03.
 Linear search not attempted -- first point.
 Iteration  1 RMS(Cart)=  0.04560121 RMS(Int)=  0.00187681
 Iteration  2 RMS(Cart)=  0.00182768 RMS(Int)=  0.00011532
 Iteration  3 RMS(Cart)=  0.00000277 RMS(Int)=  0.00011531
 Iteration  4 RMS(Cart)=  0.00000000 RMS(Int)=  0.00011531
 Variable       Old X    -DE/DX   Delta X   Delta X   Delta X     New X
                                 (Linear)    (Quad)   (Total)
    R1        1.84142  -0.00717   0.00000  -0.01360  -0.01360   1.82782
    R2        1.84095  -0.00701   0.00000  -0.01327  -0.01327   1.82768
    R3        3.02339  -0.00256   0.00000  -0.02732  -0.02732   2.99606
    R4        1.89008   0.00726   0.00000   0.01514   0.01514   1.90522
    R5        1.89026   0.00727   0.00000   0.01517   0.01517   1.90543
    R6        1.89013   0.00726   0.00000   0.01514   0.01514   1.90526
    R7        1.84133  -0.00713   0.00000  -0.01350  -0.01350   1.82782
    R8        3.02207  -0.00253   0.00000  -0.02694  -0.02694   2.99514
    R9        1.84087  -0.00696   0.00000  -0.01318  -0.01318   1.82769
   R10        1.84141  -0.00716   0.00000  -0.01358  -0.01358   1.82783
   R11        3.02326  -0.00255   0.00000  -0.02720  -0.02720   2.99606
   R12        1.84096  -0.00701   0.00000  -0.01327  -0.01327   1.82769
    A1        1.89662  -0.00663   0.00000  -0.04999  -0.04997   1.84665
    A2        2.05828   0.00300   0.00000   0.01153   0.01154   2.06982
    A3        2.06460   0.00433   0.00000   0.01975   0.01976   2.08436
    A4        1.99108  -0.00041   0.00000  -0.01214  -0.01252   1.97856
    A5        1.99080  -0.00040   0.00000  -0.01212  -0.01250   1.97830
    A6        1.99060  -0.00039   0.00000  -0.01205  -0.01243   1.97817
    A7        2.05851   0.00299   0.00000   0.01151   0.01152   2.07003
    A8        1.89655  -0.00663   0.00000  -0.04992  -0.04990   1.84665
    A9        2.06408   0.00433   0.00000   0.01976   0.01977   2.08385
   A10        2.05838   0.00299   0.00000   0.01140   0.01141   2.06979
   A11        1.89650  -0.00663   0.00000  -0.05006  -0.05005   1.84645
   A12        2.06435   0.00432   0.00000   0.01961   0.01962   2.08397
   A13        2.99396   0.00145   0.00000   0.00572   0.00572   2.99968
   A14        2.99726   0.00140   0.00000   0.00553   0.00553   3.00279
   A15        2.99513   0.00143   0.00000   0.00565   0.00565   3.00078
    D1        1.11592   0.00121   0.00000   0.06410   0.06411   1.18003
    D2       -2.82551  -0.00079   0.00000   0.01874   0.01873  -2.80678
    D3       -3.12791  -0.00055   0.00000  -0.00854  -0.00842  -3.13634
    D4        0.82505   0.00089   0.00000   0.03488   0.03477   0.85982
    D5        0.81940   0.00091   0.00000   0.03642   0.03630   0.85570
    D6       -3.13348  -0.00053   0.00000  -0.00703  -0.00692  -3.14040
    D7        3.13740  -0.00053   0.00000  -0.00693  -0.00682   3.13058
    D8        0.80696   0.00091   0.00000   0.03652   0.03640   0.84336
    D9        1.10473   0.00123   0.00000   0.06781   0.06782   1.17255
   D10       -2.83719  -0.00077   0.00000   0.02257   0.02256  -2.81463
   D11        1.11715   0.00124   0.00000   0.06798   0.06799   1.18514
   D12       -2.82468  -0.00078   0.00000   0.02217   0.02216  -2.80252
         Item               Value     Threshold  Converged?
 Maximum Force            0.007269     0.000450     NO 
 RMS     Force            0.004264     0.000300     NO 
 Maximum Displacement     0.110061     0.001800     NO 
 RMS     Displacement     0.045898     0.001200     NO 
 Predicted change in Energy=-1.445542D-03
 GradGradGradGradGradGradGradGradGradGradGradGradGradGradGradGradGradGrad

                          Input orientation:                          
 ---------------------------------------------------------------------
 Center     Atomic     Atomic              Coordinates (Angstroms)
 Number     Number      Type              X           Y           Z
 ---------------------------------------------------------------------
    1          8             0       -0.636279    1.189985   -2.133281
    2          8             0       -0.397677    0.092236    0.197575
    3          8             0        1.317192    1.221700    1.771685
    4          8             0       -0.323839   -2.494240    0.184815
    5          1             0       -1.457614    1.666186   -2.318210
    6          1             0        0.973067    1.664156    2.559955
    7          1             0        0.069473    1.717111   -2.532607
    8          1             0       -1.087992   -2.962741    0.548325
    9          1             0       -0.425518    0.573692   -0.687803
   10          1             0        0.301189    0.454293    0.827801
   11          1             0        2.131132    0.780491    2.051429
   12          1             0       -0.371396   -0.911470    0.105952
   13          1             0       -0.050122   -3.000382   -0.592564
 ---------------------------------------------------------------------
                    Distance matrix (angstroms):
                    1          2          3          4          5
     1  O    0.000000
     2  O    2.587445   0.000000
     3  O    4.366442   2.587333   0.000000
     4  O    4.364023   2.587561   4.361117   0.000000
     5  H    0.967242   3.151183   4.962293   4.985952   0.000000
     6  H    4.984104   3.151303   0.967242   4.961402   5.450202
     7  H    0.967166   3.211284   4.508788   5.027381   1.542904
     8  H    4.963888   3.151578   4.979063   0.967245   5.457161
     9  H    1.585447   1.008201   3.083186   3.191239   2.217429
    10  H    3.191880   1.008308   1.584958   3.081872   3.802559
    11  H    5.033691   3.210194   0.967171   4.498332   5.723399
    12  H    3.082279   1.008222   3.190049   1.585446   3.701451
    13  H    4.502950   3.210825   5.028439   0.967171   5.170662
                    6          7          8          9         10
     6  H    0.000000
     7  H    5.172376   0.000000
     8  H    5.450027   5.721266   0.000000
     9  H    3.700416   2.226146   3.804372   0.000000
    10  H    2.217103   3.597325   3.699196   1.685056   0.000000
    11  H    1.542911   5.112836   5.160801   3.752682   2.225390
    12  H    3.803099   3.750440   2.217412   1.684840   1.684857
    13  H    5.722168   5.102236   1.542796   3.594996   3.751750
                   11         12         13
    11  H    0.000000
    12  H    3.593085   0.000000
    13  H    5.103290   2.225914   0.000000
 Stoichiometry    H9O4(1+)
 Framework group  C1[X(H9O4)]
 Deg. of freedom    33
 Full point group                 C1
 Largest Abelian subgroup         C1      NOp   1
 Largest concise Abelian subgroup C1      NOp   1
                         Standard orientation:                         
 ---------------------------------------------------------------------
 Center     Atomic     Atomic              Coordinates (Angstroms)
 Number     Number      Type              X           Y           Z
 ---------------------------------------------------------------------
    1          8             0       -2.480647   -0.447756    0.142124
    2          8             0       -0.001017   -0.000974   -0.446682
    3          8             0        1.629664   -1.921242    0.143014
    4          8             0        0.851809    2.369945    0.142301
    5          1             0       -3.093428   -0.588841   -0.592825
    6          1             0        2.051255   -2.387987   -0.591811
    7          1             0       -2.745296   -1.074301    0.829737
    8          1             0        1.045050    2.968350   -0.592635
    9          1             0       -0.941077   -0.250192   -0.180889
   10          1             0        0.685482   -0.690328   -0.181736
   11          1             0        2.311347   -1.830213    0.823045
   12          1             0        0.253291    0.938155   -0.182342
   13          1             0        0.434901    2.915576    0.823399
 ---------------------------------------------------------------------
 Rotational constants (GHZ):      2.6742010      2.6671303      1.3895663
 Standard basis: Aug-CC-pVDZ (5D, 7F)
 There are   173 symmetry adapted basis functions of A   symmetry.
 Integral buffers will be    131072 words long.
 Raffenetti 1 integral format.
 Two-electron integral symmetry is turned on.
   173 basis functions,   271 primitive gaussians,   181 cartesian basis functions
    20 alpha electrons       20 beta electrons
       nuclear repulsion energy       142.2564374067 Hartrees.
 NAtoms=   13 NActive=   13 NUniq=   13 SFac= 7.50D-01 NAtFMM=   80 NAOKFM=F Big=F
 One-electron integrals computed using PRISM.
 NBasis=   173 RedAO= T  NBF=   173
 NBsUse=   173 1.00D-06 NBFU=   173
 Initial guess read from the read-write file:
 Initial guess orbital symmetries:
       Occupied  (A) (A) (A) (A) (A) (A) (A) (A) (A) (A) (A) (A)
                 (A) (A) (A) (A) (A) (A) (A) (A)
       Virtual   (A) (A) (A) (A) (A) (A) (A) (A) (A) (A) (A) (A)
                 (A) (A) (A) (A) (A) (A) (A) (A) (A) (A) (A) (A)
                 (A) (A) (A) (A) (A) (A) (A) (A) (A) (A) (A) (A)
                 (A) (A) (A) (A) (A) (A) (A) (A) (A) (A) (A) (A)
                 (A) (A) (A) (A) (A) (A) (A) (A) (A) (A) (A) (A)
                 (A) (A) (A) (A) (A) (A) (A) (A) (A) (A) (A) (A)
                 (A) (A) (A) (A) (A) (A) (A) (A) (A) (A) (A) (A)
                 (A) (A) (A) (A) (A) (A) (A) (A) (A) (A) (A) (A)
                 (A) (A) (A) (A) (A) (A) (A) (A) (A) (A) (A) (A)
                 (A) (A) (A) (A) (A) (A) (A) (A) (A) (A) (A) (A)
                 (A) (A) (A) (A) (A) (A) (A) (A) (A) (A) (A) (A)
                 (A) (A) (A) (A) (A) (A) (A) (A) (A) (A) (A) (A)
                 (A) (A) (A) (A) (A) (A) (A) (A) (A)
 Harris functional with IExCor=  205 diagonalized for initial guess.
 ExpMin= 2.97D-02 ExpMax= 1.17D+04 ExpMxC= 4.01D+02 IAcc=3 IRadAn=         5 AccDes= 0.00D+00
 HarFok:  IExCor= 205 AccDes= 0.00D+00 IRadAn=         5 IDoV=1
 ScaDFX=  1.000000  1.000000  1.000000  1.000000
 Requested convergence on RMS density matrix=1.00D-08 within 128 cycles.
 Requested convergence on MAX density matrix=1.00D-06.
 Requested convergence on             energy=1.00D-06.
 No special actions if energy rises.
 SCF Done:  E(RHF) =  -304.549689570     A.U. after   10 cycles
             Convg  =    0.2883D-08             -V/T =  2.0017
             S**2   =   0.0000
 ExpMin= 2.97D-02 ExpMax= 1.17D+04 ExpMxC= 4.01D+02 IAcc=3 IRadAn=         5 AccDes= 0.00D+00
 HarFok:  IExCor= 205 AccDes= 0.00D+00 IRadAn=         5 IDoV=1
 ScaDFX=  1.000000  1.000000  1.000000  1.000000
 Range of M.O.s used for correlation:     5   173
 NBasis=   173 NAE=    20 NBE=    20 NFC=     4 NFV=     0
 NROrb=    169 NOA=    16 NOB=    16 NVA=   153 NVB=   153

 **** Warning!!: The largest alpha MO coefficient is  0.12236646D+02

 Fully direct method using O(ONN) memory.
 JobTyp=1 Pass  1:  I=   5 to  12 NPSUse=  2 ParTrn=T ParDer=T DoDerP=T.
 JobTyp=1 Pass  2:  I=  13 to  20 NPSUse=  2 ParTrn=T ParDer=T DoDerP=T.
 Spin components of T(2) and E(2):
     alpha-alpha T2 =       0.3049655301D-01 E2=     -0.1137039498D+00
     alpha-beta  T2 =       0.1704384717D+00 E2=     -0.6589387390D+00
     beta-beta   T2 =       0.3049655301D-01 E2=     -0.1137039498D+00
 ANorm=    0.1109698868D+01
 E2 =    -0.8863466385D+00 EUMP2 =    -0.30543603620879D+03
 DoAtom=TTTTTTTTTTTTT
          Differentiating once with respect to electric field.
                with respect to dipole field.
          Differentiating once with respect to nuclear coordinates.
          There are   1 degrees of freedom in the 1st order CPHF.
 Petite list used in FoFDir.
 MinBra= 0 MaxBra= 2 Meth= 1.
 IRaf=       0 NMat=   1 IRICut=       1 DoRegI=T DoRafI=F ISym2E= 1 JSym2E=1.
     1 vectors were produced by pass  0.
 AX will form   1 AO Fock derivatives at one time.
     1 vectors were produced by pass  1.
     1 vectors were produced by pass  2.
     1 vectors were produced by pass  3.
     1 vectors were produced by pass  4.
     1 vectors were produced by pass  5.
     1 vectors were produced by pass  6.
     1 vectors were produced by pass  7.
     1 vectors were produced by pass  8.
     1 vectors were produced by pass  9.
     1 vectors were produced by pass 10.
     1 vectors were produced by pass 11.
 Inv2:  IOpt= 1 Iter= 1 AM= 5.12D-16 Conv= 1.00D-12.
 Inverted reduced A of dimension   12 with in-core refinement.
 End of Minotr Frequency-dependent properties file   721 does not exist.
 ***** Axes restored to original set *****
 -------------------------------------------------------------------
 Center     Atomic                   Forces (Hartrees/Bohr)
 Number     Number              X              Y              Z
 -------------------------------------------------------------------
    1          8           0.001662569   -0.001633623    0.004441299
    2          8          -0.002549053    0.000609576    0.001278637
    3          8          -0.002436408   -0.003104002   -0.003063206
    4          8           0.000325053    0.004848963   -0.001153084
    5          1          -0.000598651    0.000797519   -0.000925548
    6          1           0.000391602    0.000610715    0.001150530
    7          1          -0.000095584    0.000782933   -0.001601714
    8          1          -0.000539789   -0.001238135    0.000149624
    9          1          -0.000862060    0.000539341   -0.004128316
   10          1           0.002598972    0.002841696    0.001693123
   11          1           0.001229333    0.000720839    0.001074812
   12          1           0.000785246   -0.004000854    0.001167941
   13          1           0.000088768   -0.001774968   -0.000084097
 -------------------------------------------------------------------
 Cartesian Forces:  Max     0.004848963 RMS     0.001976867

 GradGradGradGradGradGradGradGradGradGradGradGradGradGradGradGradGradGrad
 Berny optimization.
 Internal  Forces:  Max     0.002173758 RMS     0.001178774
 Search for a local minimum.
 Step number   2 out of a maximum of  49
 All quantities printed in internal units (Hartrees-Bohrs-Radians)
 Update second derivatives using D2CorX and points  1  2
 Trust test= 1.16D+00 RLast= 1.80D-01 DXMaxT set to 4.24D-01
     Eigenvalues ---    0.00230   0.00230   0.00231   0.01022   0.01025
     Eigenvalues ---    0.01026   0.03087   0.04240   0.04244   0.04688
     Eigenvalues ---    0.07823   0.09096   0.09105   0.13964   0.14360
     Eigenvalues ---    0.14361   0.16000   0.16000   0.16000   0.16000
     Eigenvalues ---    0.16144   0.24832   0.25000   0.25000   0.45590
     Eigenvalues ---    0.47644   0.47653   0.52481   0.52487   0.52509
     Eigenvalues ---    0.52529   0.52536   0.591501000.000001000.00000
     Eigenvalues --- 1000.000001000.000001000.000001000.00000
 RFO step:  Lambda=-4.31078603D-04.
 Quartic linear search produced a step of  0.22273.
 Iteration  1 RMS(Cart)=  0.03972212 RMS(Int)=  0.00107808
 Iteration  2 RMS(Cart)=  0.00117480 RMS(Int)=  0.00017250
 Iteration  3 RMS(Cart)=  0.00000041 RMS(Int)=  0.00017250
 Variable       Old X    -DE/DX   Delta X   Delta X   Delta X     New X
                                 (Linear)    (Quad)   (Total)
    R1        1.82782   0.00108  -0.00303   0.00351   0.00048   1.82830
    R2        1.82768   0.00102  -0.00296   0.00335   0.00039   1.82807
    R3        2.99606  -0.00189  -0.00609  -0.02301  -0.02910   2.96696
    R4        1.90522   0.00217   0.00337   0.00444   0.00781   1.91303
    R5        1.90543   0.00215   0.00338   0.00439   0.00777   1.91319
    R6        1.90526   0.00217   0.00337   0.00442   0.00779   1.91305
    R7        1.82782   0.00108  -0.00301   0.00350   0.00049   1.82832
    R8        2.99514  -0.00188  -0.00600  -0.02281  -0.02881   2.96632
    R9        1.82769   0.00102  -0.00294   0.00333   0.00040   1.82809
   R10        1.82783   0.00108  -0.00302   0.00352   0.00049   1.82832
   R11        2.99606  -0.00189  -0.00606  -0.02297  -0.02903   2.96703
   R12        1.82769   0.00102  -0.00296   0.00335   0.00040   1.82808
    A1        1.84665  -0.00116  -0.01113   0.00190  -0.00947   1.83718
    A2        2.06982   0.00064   0.00257   0.00894   0.01133   2.08116
    A3        2.08436   0.00183   0.00440   0.01732   0.02155   2.10591
    A4        1.97856  -0.00029  -0.00279  -0.00943  -0.01265   1.96591
    A5        1.97830  -0.00029  -0.00278  -0.00940  -0.01262   1.96568
    A6        1.97817  -0.00029  -0.00277  -0.00941  -0.01261   1.96556
    A7        2.07003   0.00064   0.00257   0.00893   0.01131   2.08134
    A8        1.84665  -0.00116  -0.01111   0.00190  -0.00946   1.83720
    A9        2.08385   0.00184   0.00440   0.01734   0.02156   2.10541
   A10        2.06979   0.00063   0.00254   0.00887   0.01123   2.08103
   A11        1.84645  -0.00115  -0.01115   0.00197  -0.00941   1.83704
   A12        2.08397   0.00182   0.00437   0.01725   0.02144   2.10541
   A13        2.99968   0.00118   0.00127   0.00532   0.00659   3.00627
   A14        3.00279   0.00112   0.00123   0.00505   0.00628   3.00908
   A15        3.00078   0.00116   0.00126   0.00521   0.00647   3.00724
    D1        1.18003  -0.00046   0.01428   0.00514   0.01928   1.19931
    D2       -2.80678   0.00064   0.00417   0.04069   0.04500  -2.76179
    D3       -3.13634  -0.00041  -0.00188  -0.00997  -0.01171   3.13514
    D4        0.85982   0.00055   0.00774   0.02147   0.02907   0.88890
    D5        0.85570   0.00057   0.00809   0.02271   0.03066   0.88635
    D6       -3.14040  -0.00040  -0.00154  -0.00873  -0.01013   3.13266
    D7        3.13058  -0.00040  -0.00152  -0.00863  -0.01001   3.12057
    D8        0.84336   0.00057   0.00811   0.02282   0.03079   0.87415
    D9        1.17255  -0.00044   0.01511   0.00918   0.02416   1.19670
   D10       -2.81463   0.00066   0.00502   0.04470   0.04986  -2.76477
   D11        1.18514  -0.00044   0.01514   0.00879   0.02380   1.20894
   D12       -2.80252   0.00065   0.00494   0.04422   0.04929  -2.75323
         Item               Value     Threshold  Converged?
 Maximum Force            0.002174     0.000450     NO 
 RMS     Force            0.001179     0.000300     NO 
 Maximum Displacement     0.098200     0.001800     NO 
 RMS     Displacement     0.040226     0.001200     NO 
 Predicted change in Energy=-2.837339D-04
 GradGradGradGradGradGradGradGradGradGradGradGradGradGradGradGradGradGrad

                          Input orientation:                          
 ---------------------------------------------------------------------
 Center     Atomic     Atomic              Coordinates (Angstroms)
 Number     Number      Type              X           Y           Z
 ---------------------------------------------------------------------
    1          8             0       -0.632474    1.183195   -2.113919
    2          8             0       -0.434683    0.100838    0.216106
    3          8             0        1.303889    1.210738    1.760454
    4          8             0       -0.326097   -2.473537    0.182986
    5          1             0       -1.433577    1.686621   -2.316023
    6          1             0        0.989129    1.634586    2.571221
    7          1             0        0.087733    1.669036   -2.539439
    8          1             0       -1.090187   -2.966588    0.513343
    9          1             0       -0.449867    0.576534   -0.677371
   10          1             0        0.277749    0.462340    0.837995
   11          1             0        2.144927    0.796785    1.999464
   12          1             0       -0.393567   -0.906145    0.120536
   13          1             0       -0.001359   -2.983388   -0.572278
 ---------------------------------------------------------------------
                    Distance matrix (angstroms):
                    1          2          3          4          5
     1  O    0.000000
     2  O    2.576750   0.000000
     3  O    4.331400   2.576727   0.000000
     4  O    4.329126   2.576877   4.326563   0.000000
     5  H    0.967497   3.150266   4.933341   4.977798   0.000000
     6  H    4.978342   3.150585   0.967504   4.930534   5.455031
     7  H    0.967372   3.213285   4.492010   4.974311   1.537729
     8  H    4.932820   3.150736   4.973625   0.967507   5.456701
     9  H    1.570049   1.012333   3.069343   3.171508   2.210240
    10  H    3.172056   1.012418   1.569711   3.068068   3.791482
    11  H    4.978272   3.212335   0.967382   4.483365   5.676348
    12  H    3.068421   1.012343   3.170470   1.570086   3.706869
    13  H    4.487247   3.212751   4.973530   0.967381   5.186606
                    6          7          8          9         10
     6  H    0.000000
     7  H    5.189658   0.000000
     8  H    5.452451   5.674151   0.000000
     9  H    3.707227   2.224831   3.792298   0.000000
    10  H    2.210043   3.591558   3.705968   1.684874   0.000000
    11  H    1.537753   5.059102   5.180492   3.734556   2.224234
    12  H    3.791176   3.733454   2.210205   1.684684   1.684685
    13  H    5.673476   5.052001   1.537661   3.589602   3.733606
                   11         12         13
    11  H    0.000000
    12  H    3.588076   0.000000
    13  H    5.050753   2.224580   0.000000
 Stoichiometry    H9O4(1+)
 Framework group  C1[X(H9O4)]
 Deg. of freedom    33
 Full point group                 C1
 Largest Abelian subgroup         C1      NOp   1
 Largest concise Abelian subgroup C1      NOp   1
                         Standard orientation:                         
 ---------------------------------------------------------------------
 Center     Atomic     Atomic              Coordinates (Angstroms)
 Number     Number      Type              X           Y           Z
 ---------------------------------------------------------------------
    1          8             0       -2.446112   -0.518480    0.147391
    2          8             0       -0.000929   -0.000943   -0.479405
    3          8             0        1.673497   -1.856333    0.147767
    4          8             0        0.773474    2.375582    0.147273
    5          1             0       -3.070086   -0.705654   -0.567922
    6          1             0        2.144871   -2.306149   -0.567450
    7          1             0       -2.697894   -1.113698    0.867204
    8          1             0        0.927370    3.008633   -0.568011
    9          1             0       -0.934074   -0.274607   -0.198039
   10          1             0        0.703243   -0.672088   -0.198879
   11          1             0        2.318223   -1.771778    0.864011
   12          1             0        0.228760    0.944399   -0.199386
   13          1             0        0.380153    2.892339    0.864270
 ---------------------------------------------------------------------
 Rotational constants (GHZ):      2.7022928      2.6957044      1.4103237
 Standard basis: Aug-CC-pVDZ (5D, 7F)
 There are   173 symmetry adapted basis functions of A   symmetry.
 Integral buffers will be    131072 words long.
 Raffenetti 1 integral format.
 Two-electron integral symmetry is turned on.
   173 basis functions,   271 primitive gaussians,   181 cartesian basis functions
    20 alpha electrons       20 beta electrons
       nuclear repulsion energy       142.7392082418 Hartrees.
 NAtoms=   13 NActive=   13 NUniq=   13 SFac= 7.50D-01 NAtFMM=   80 NAOKFM=F Big=F
 One-electron integrals computed using PRISM.
 NBasis=   173 RedAO= T  NBF=   173
 NBsUse=   173 1.00D-06 NBFU=   173
 Initial guess read from the read-write file:
 Initial guess orbital symmetries:
       Occupied  (A) (A) (A) (A) (A) (A) (A) (A) (A) (A) (A) (A)
                 (A) (A) (A) (A) (A) (A) (A) (A)
       Virtual   (A) (A) (A) (A) (A) (A) (A) (A) (A) (A) (A) (A)
                 (A) (A) (A) (A) (A) (A) (A) (A) (A) (A) (A) (A)
                 (A) (A) (A) (A) (A) (A) (A) (A) (A) (A) (A) (A)
                 (A) (A) (A) (A) (A) (A) (A) (A) (A) (A) (A) (A)
                 (A) (A) (A) (A) (A) (A) (A) (A) (A) (A) (A) (A)
                 (A) (A) (A) (A) (A) (A) (A) (A) (A) (A) (A) (A)
                 (A) (A) (A) (A) (A) (A) (A) (A) (A) (A) (A) (A)
                 (A) (A) (A) (A) (A) (A) (A) (A) (A) (A) (A) (A)
                 (A) (A) (A) (A) (A) (A) (A) (A) (A) (A) (A) (A)
                 (A) (A) (A) (A) (A) (A) (A) (A) (A) (A) (A) (A)
                 (A) (A) (A) (A) (A) (A) (A) (A) (A) (A) (A) (A)
                 (A) (A) (A) (A) (A) (A) (A) (A) (A) (A) (A) (A)
                 (A) (A) (A) (A) (A) (A) (A) (A) (A)
 Harris functional with IExCor=  205 diagonalized for initial guess.
 ExpMin= 2.97D-02 ExpMax= 1.17D+04 ExpMxC= 4.01D+02 IAcc=3 IRadAn=         5 AccDes= 0.00D+00
 HarFok:  IExCor= 205 AccDes= 0.00D+00 IRadAn=         5 IDoV=1
 ScaDFX=  1.000000  1.000000  1.000000  1.000000
 Requested convergence on RMS density matrix=1.00D-08 within 128 cycles.
 Requested convergence on MAX density matrix=1.00D-06.
 Requested convergence on             energy=1.00D-06.
 No special actions if energy rises.
 SCF Done:  E(RHF) =  -304.549307555     A.U. after   10 cycles
             Convg  =    0.2073D-08             -V/T =  2.0017
             S**2   =   0.0000
 ExpMin= 2.97D-02 ExpMax= 1.17D+04 ExpMxC= 4.01D+02 IAcc=3 IRadAn=         5 AccDes= 0.00D+00
 HarFok:  IExCor= 205 AccDes= 0.00D+00 IRadAn=         5 IDoV=1
 ScaDFX=  1.000000  1.000000  1.000000  1.000000
 Range of M.O.s used for correlation:     5   173
 NBasis=   173 NAE=    20 NBE=    20 NFC=     4 NFV=     0
 NROrb=    169 NOA=    16 NOB=    16 NVA=   153 NVB=   153

 **** Warning!!: The largest alpha MO coefficient is  0.11895762D+02

 Fully direct method using O(ONN) memory.
 JobTyp=1 Pass  1:  I=   5 to  12 NPSUse=  2 ParTrn=T ParDer=T DoDerP=T.
 JobTyp=1 Pass  2:  I=  13 to  20 NPSUse=  2 ParTrn=T ParDer=T DoDerP=T.
 Spin components of T(2) and E(2):
     alpha-alpha T2 =       0.3055281885D-01 E2=     -0.1138590834D+00
     alpha-beta  T2 =       0.1706369447D+00 E2=     -0.6594114841D+00
     beta-beta   T2 =       0.3055281885D-01 E2=     -0.1138590834D+00
 ANorm=    0.1109838989D+01
 E2 =    -0.8871296510D+00 EUMP2 =    -0.30543643720598D+03
 DoAtom=TTTTTTTTTTTTT
          Differentiating once with respect to electric field.
                with respect to dipole field.
          Differentiating once with respect to nuclear coordinates.
          There are   1 degrees of freedom in the 1st order CPHF.
 Petite list used in FoFDir.
 MinBra= 0 MaxBra= 2 Meth= 1.
 IRaf=       0 NMat=   1 IRICut=       1 DoRegI=T DoRafI=F ISym2E= 1 JSym2E=1.
     1 vectors were produced by pass  0.
 AX will form   1 AO Fock derivatives at one time.
     1 vectors were produced by pass  1.
     1 vectors were produced by pass  2.
     1 vectors were produced by pass  3.
     1 vectors were produced by pass  4.
     1 vectors were produced by pass  5.
     1 vectors were produced by pass  6.
     1 vectors were produced by pass  7.
     1 vectors were produced by pass  8.
     1 vectors were produced by pass  9.
     1 vectors were produced by pass 10.
     1 vectors were produced by pass 11.
 Inv2:  IOpt= 1 Iter= 1 AM= 5.15D-16 Conv= 1.00D-12.
 Inverted reduced A of dimension   12 with in-core refinement.
 End of Minotr Frequency-dependent properties file   721 does not exist.
 ***** Axes restored to original set *****
 -------------------------------------------------------------------
 Center     Atomic                   Forces (Hartrees/Bohr)
 Number     Number              X              Y              Z
 -------------------------------------------------------------------
    1          8           0.001219863   -0.000146137    0.002347586
    2          8          -0.000366604    0.000112767    0.000189881
    3          8          -0.000990143   -0.002170589   -0.001111159
    4          8          -0.000080791    0.002286652   -0.001313228
    5          1          -0.001084270    0.000164429   -0.000321230
    6          1          -0.000442944    0.000825306    0.000641357
    7          1           0.000563852    0.000173860   -0.001025888
    8          1          -0.000680108   -0.000479283    0.000780513
    9          1          -0.000859816   -0.000410248   -0.001517626
   10          1           0.000542229    0.001622186    0.000294395
   11          1           0.001151937    0.000205364    0.000147431
   12          1           0.000354917   -0.001263556    0.001202835
   13          1           0.000671878   -0.000920752   -0.000314866
 -------------------------------------------------------------------
 Cartesian Forces:  Max     0.002347586 RMS     0.000994449

 GradGradGradGradGradGradGradGradGradGradGradGradGradGradGradGradGradGrad
 Berny optimization.
 Internal  Forces:  Max     0.001050455 RMS     0.000674488
 Search for a local minimum.
 Step number   3 out of a maximum of  49
 All quantities printed in internal units (Hartrees-Bohrs-Radians)
 Update second derivatives using D2CorX and points  1  2  3
 Trust test= 1.41D+00 RLast= 1.30D-01 DXMaxT set to 4.24D-01
     Eigenvalues ---    0.00230   0.00230   0.00241   0.01023   0.01025
     Eigenvalues ---    0.01026   0.02231   0.03893   0.03899   0.04068
     Eigenvalues ---    0.07159   0.09096   0.09105   0.14131   0.14215
     Eigenvalues ---    0.14216   0.16000   0.16000   0.16000   0.16000
     Eigenvalues ---    0.16800   0.24553   0.25000   0.25000   0.46410
     Eigenvalues ---    0.47644   0.47653   0.52481   0.52487   0.52511
     Eigenvalues ---    0.52529   0.52536   0.609731000.000001000.00000
     Eigenvalues --- 1000.000001000.000001000.000001000.00000
 RFO step:  Lambda=-1.41789405D-04.
 Quartic linear search produced a step of  0.78945.
 Iteration  1 RMS(Cart)=  0.02674777 RMS(Int)=  0.00077188
 Iteration  2 RMS(Cart)=  0.00075335 RMS(Int)=  0.00043907
 Iteration  3 RMS(Cart)=  0.00000027 RMS(Int)=  0.00043907
 Variable       Old X    -DE/DX   Delta X   Delta X   Delta X     New X
                                 (Linear)    (Quad)   (Total)
    R1        1.82830   0.00105   0.00038   0.00065   0.00103   1.82933
    R2        1.82807   0.00096   0.00031   0.00046   0.00077   1.82883
    R3        2.96696  -0.00092  -0.02297  -0.00678  -0.02975   2.93721
    R4        1.91303   0.00036   0.00616   0.00000   0.00616   1.91919
    R5        1.91319   0.00034   0.00613  -0.00004   0.00609   1.91929
    R6        1.91305   0.00035   0.00615  -0.00001   0.00614   1.91919
    R7        1.82832   0.00104   0.00039   0.00064   0.00103   1.82935
    R8        2.96632  -0.00092  -0.02275  -0.00673  -0.02948   2.93685
    R9        1.82809   0.00095   0.00031   0.00044   0.00076   1.82884
   R10        1.82832   0.00105   0.00039   0.00064   0.00103   1.82935
   R11        2.96703  -0.00092  -0.02291  -0.00680  -0.02971   2.93732
   R12        1.82808   0.00096   0.00031   0.00045   0.00076   1.82885
    A1        1.83718   0.00005  -0.00747   0.00785  -0.00051   1.83667
    A2        2.08116  -0.00002   0.00895   0.00451   0.01276   2.09392
    A3        2.10591   0.00100   0.01701   0.01137   0.02769   2.13360
    A4        1.96591  -0.00010  -0.00999  -0.00065  -0.01117   1.95474
    A5        1.96568  -0.00010  -0.00996  -0.00065  -0.01113   1.95455
    A6        1.96556  -0.00010  -0.00996  -0.00067  -0.01116   1.95440
    A7        2.08134  -0.00002   0.00893   0.00455   0.01278   2.09412
    A8        1.83720   0.00005  -0.00746   0.00788  -0.00047   1.83673
    A9        2.10541   0.00100   0.01702   0.01143   0.02776   2.13317
   A10        2.08103  -0.00002   0.00887   0.00456   0.01274   2.09376
   A11        1.83704   0.00006  -0.00743   0.00790  -0.00041   1.83663
   A12        2.10541   0.00099   0.01692   0.01139   0.02763   2.13304
   A13        3.00627   0.00099   0.00521   0.00433   0.00953   3.01580
   A14        3.00908   0.00093   0.00496   0.00401   0.00897   3.01805
   A15        3.00724   0.00097   0.00511   0.00420   0.00931   3.01655
    D1        1.19931  -0.00069   0.01522  -0.04206  -0.02730   1.17200
    D2       -2.76179   0.00069   0.03552  -0.00723   0.02876  -2.73303
    D3        3.13514  -0.00016  -0.00924  -0.00464  -0.01371   3.12143
    D4        0.88890   0.00016   0.02295  -0.00258   0.02019   0.90909
    D5        0.88635   0.00016   0.02420  -0.00244   0.02158   0.90794
    D6        3.13266  -0.00016  -0.00800  -0.00449  -0.01230   3.12035
    D7        3.12057  -0.00016  -0.00790  -0.00436  -0.01208   3.10849
    D8        0.87415   0.00016   0.02430  -0.00231   0.02182   0.89597
    D9        1.19670  -0.00068   0.01907  -0.04251  -0.02390   1.17280
   D10       -2.76477   0.00069   0.03936  -0.00752   0.03231  -2.73246
   D11        1.20894  -0.00069   0.01879  -0.04287  -0.02454   1.18440
   D12       -2.75323   0.00069   0.03891  -0.00794   0.03143  -2.72179
         Item               Value     Threshold  Converged?
 Maximum Force            0.001050     0.000450     NO 
 RMS     Force            0.000674     0.000300     NO 
 Maximum Displacement     0.058215     0.001800     NO 
 RMS     Displacement     0.026961     0.001200     NO 
 Predicted change in Energy=-1.782031D-04
 GradGradGradGradGradGradGradGradGradGradGradGradGradGradGradGradGradGrad

                          Input orientation:                          
 ---------------------------------------------------------------------
 Center     Atomic     Atomic              Coordinates (Angstroms)
 Number     Number      Type              X           Y           Z
 ---------------------------------------------------------------------
    1          8             0       -0.621145    1.184541   -2.091388
    2          8             0       -0.465489    0.107856    0.231532
    3          8             0        1.294132    1.189407    1.752572
    4          8             0       -0.329607   -2.452948    0.169518
    5          1             0       -1.419470    1.680399   -2.323570
    6          1             0        1.003179    1.630440    2.563715
    7          1             0        0.103513    1.646339   -2.536590
    8          1             0       -1.076553   -2.968821    0.505777
    9          1             0       -0.468899    0.580490   -0.667377
   10          1             0        0.258323    0.466486    0.847170
   11          1             0        2.151967    0.797565    1.969786
   12          1             0       -0.412746   -0.901304    0.130325
   13          1             0        0.024412   -2.969433   -0.568398
 ---------------------------------------------------------------------
                    Distance matrix (angstroms):
                    1          2          3          4          5
     1  O    0.000000
     2  O    2.565041   0.000000
     3  O    4.294687   2.565070   0.000000
     4  O    4.292787   2.565156   4.290611   0.000000
     5  H    0.968042   3.148256   4.921345   4.948520   0.000000
     6  H    4.950479   3.148703   0.968048   4.917577   5.455023
     7  H    0.967777   3.217638   4.474736   4.931001   1.538186
     8  H    4.919663   3.148738   4.946263   0.968051   5.453260
     9  H    1.554305   1.015594   3.055358   3.149848   2.203715
    10  H    3.150268   1.015643   1.554114   3.054173   3.787105
    11  H    4.932853   3.216878   0.967783   4.468222   5.653978
    12  H    3.054536   1.015592   3.148998   1.554364   3.701389
    13  H    4.471212   3.217079   4.929000   0.967784   5.175553
                    6          7          8          9         10
     6  H    0.000000
     7  H    5.179069   0.000000
     8  H    5.451018   5.652279   0.000000
     9  H    3.702616   2.226577   3.787234   0.000000
    10  H    2.203662   3.586899   3.701322   1.683954   0.000000
    11  H    1.538228   5.022350   5.172265   3.724337   2.226155
    12  H    3.786286   3.724170   2.203686   1.683803   1.683760
    13  H    5.650394   5.018504   1.538173   3.585401   3.723451
                   11         12         13
    11  H    0.000000
    12  H    3.584344   0.000000
    13  H    5.015889   2.226315   0.000000
 Stoichiometry    H9O4(1+)
 Framework group  C1[X(H9O4)]
 Deg. of freedom    33
 Full point group                 C1
 Largest Abelian subgroup         C1      NOp   1
 Largest concise Abelian subgroup C1      NOp   1
                         Standard orientation:                         
 ---------------------------------------------------------------------
 Center     Atomic     Atomic              Coordinates (Angstroms)
 Number     Number      Type              X           Y           Z
 ---------------------------------------------------------------------
    1          8             0       -2.418104   -0.547368    0.153191
    2          8             0       -0.000811   -0.000797   -0.508164
    3          8             0        1.684273   -1.818129    0.153181
    4          8             0        0.734652    2.366075    0.152927
    5          1             0       -3.063721   -0.727935   -0.545150
    6          1             0        2.163684   -2.287267   -0.544810
    7          1             0       -2.673810   -1.120128    0.890179
    8          1             0        0.901597    3.015632   -0.545162
    9          1             0       -0.931217   -0.281950   -0.213665
   10          1             0        0.708401   -0.665815   -0.214397
   11          1             0        2.308847   -1.750311    0.889328
   12          1             0        0.221025    0.945866   -0.214826
   13          1             0        0.365117    2.873654    0.889414
 ---------------------------------------------------------------------
 Rotational constants (GHZ):      2.7322605      2.7265626      1.4318504
 Standard basis: Aug-CC-pVDZ (5D, 7F)
 There are   173 symmetry adapted basis functions of A   symmetry.
 Integral buffers will be    131072 words long.
 Raffenetti 1 integral format.
 Two-electron integral symmetry is turned on.
   173 basis functions,   271 primitive gaussians,   181 cartesian basis functions
    20 alpha electrons       20 beta electrons
       nuclear repulsion energy       143.2526611795 Hartrees.
 NAtoms=   13 NActive=   13 NUniq=   13 SFac= 7.50D-01 NAtFMM=   80 NAOKFM=F Big=F
 One-electron integrals computed using PRISM.
 NBasis=   173 RedAO= T  NBF=   173
 NBsUse=   173 1.00D-06 NBFU=   173
 Initial guess read from the read-write file:
 Initial guess orbital symmetries:
       Occupied  (A) (A) (A) (A) (A) (A) (A) (A) (A) (A) (A) (A)
                 (A) (A) (A) (A) (A) (A) (A) (A)
       Virtual   (A) (A) (A) (A) (A) (A) (A) (A) (A) (A) (A) (A)
                 (A) (A) (A) (A) (A) (A) (A) (A) (A) (A) (A) (A)
                 (A) (A) (A) (A) (A) (A) (A) (A) (A) (A) (A) (A)
                 (A) (A) (A) (A) (A) (A) (A) (A) (A) (A) (A) (A)
                 (A) (A) (A) (A) (A) (A) (A) (A) (A) (A) (A) (A)
                 (A) (A) (A) (A) (A) (A) (A) (A) (A) (A) (A) (A)
                 (A) (A) (A) (A) (A) (A) (A) (A) (A) (A) (A) (A)
                 (A) (A) (A) (A) (A) (A) (A) (A) (A) (A) (A) (A)
                 (A) (A) (A) (A) (A) (A) (A) (A) (A) (A) (A) (A)
                 (A) (A) (A) (A) (A) (A) (A) (A) (A) (A) (A) (A)
                 (A) (A) (A) (A) (A) (A) (A) (A) (A) (A) (A) (A)
                 (A) (A) (A) (A) (A) (A) (A) (A) (A) (A) (A) (A)
                 (A) (A) (A) (A) (A) (A) (A) (A) (A)
 Harris functional with IExCor=  205 diagonalized for initial guess.
 ExpMin= 2.97D-02 ExpMax= 1.17D+04 ExpMxC= 4.01D+02 IAcc=3 IRadAn=         5 AccDes= 0.00D+00
 HarFok:  IExCor= 205 AccDes= 0.00D+00 IRadAn=         5 IDoV=1
 ScaDFX=  1.000000  1.000000  1.000000  1.000000
 Requested convergence on RMS density matrix=1.00D-08 within 128 cycles.
 Requested convergence on MAX density matrix=1.00D-06.
 Requested convergence on             energy=1.00D-06.
 No special actions if energy rises.
 SCF Done:  E(RHF) =  -304.548924652     A.U. after    9 cycles
             Convg  =    0.7967D-08             -V/T =  2.0017
             S**2   =   0.0000
 ExpMin= 2.97D-02 ExpMax= 1.17D+04 ExpMxC= 4.01D+02 IAcc=3 IRadAn=         5 AccDes= 0.00D+00
 HarFok:  IExCor= 205 AccDes= 0.00D+00 IRadAn=         5 IDoV=1
 ScaDFX=  1.000000  1.000000  1.000000  1.000000
 Range of M.O.s used for correlation:     5   173
 NBasis=   173 NAE=    20 NBE=    20 NFC=     4 NFV=     0
 NROrb=    169 NOA=    16 NOB=    16 NVA=   153 NVB=   153

 **** Warning!!: The largest alpha MO coefficient is  0.11806187D+02

 Fully direct method using O(ONN) memory.
 JobTyp=1 Pass  1:  I=   5 to  12 NPSUse=  2 ParTrn=T ParDer=T DoDerP=T.
 JobTyp=1 Pass  2:  I=  13 to  20 NPSUse=  2 ParTrn=T ParDer=T DoDerP=T.
 Spin components of T(2) and E(2):
     alpha-alpha T2 =       0.3059537044D-01 E2=     -0.1139912739D+00
     alpha-beta  T2 =       0.1707493883D+00 E2=     -0.6597388167D+00
     beta-beta   T2 =       0.3059537044D-01 E2=     -0.1139912739D+00
 ANorm=    0.1109927984D+01
 E2 =    -0.8877213645D+00 EUMP2 =    -0.30543664601686D+03
 DoAtom=TTTTTTTTTTTTT
          Differentiating once with respect to electric field.
                with respect to dipole field.
          Differentiating once with respect to nuclear coordinates.
          There are   1 degrees of freedom in the 1st order CPHF.
 Petite list used in FoFDir.
 MinBra= 0 MaxBra= 2 Meth= 1.
 IRaf=       0 NMat=   1 IRICut=       1 DoRegI=T DoRafI=F ISym2E= 1 JSym2E=1.
     1 vectors were produced by pass  0.
 AX will form   1 AO Fock derivatives at one time.
     1 vectors were produced by pass  1.
     1 vectors were produced by pass  2.
     1 vectors were produced by pass  3.
     1 vectors were produced by pass  4.
     1 vectors were produced by pass  5.
     1 vectors were produced by pass  6.
     1 vectors were produced by pass  7.
     1 vectors were produced by pass  8.
     1 vectors were produced by pass  9.
     1 vectors were produced by pass 10.
 Inv2:  IOpt= 1 Iter= 1 AM= 2.81D-16 Conv= 1.00D-12.
 Inverted reduced A of dimension   11 with in-core refinement.
 End of Minotr Frequency-dependent properties file   721 does not exist.
 ***** Axes restored to original set *****
 -------------------------------------------------------------------
 Center     Atomic                   Forces (Hartrees/Bohr)
 Number     Number              X              Y              Z
 -------------------------------------------------------------------
    1          8           0.000651762    0.000875093    0.000264508
    2          8           0.001312503   -0.000278509   -0.000653089
    3          8           0.000314457   -0.000959222    0.000464289
    4          8          -0.000266455   -0.000069831   -0.001087542
    5          1          -0.000710758   -0.000225492    0.000081560
    6          1          -0.000544071    0.000504534    0.000060469
    7          1           0.000436520   -0.000183981   -0.000386231
    8          1          -0.000345048    0.000088097    0.000655238
    9          1          -0.000807449   -0.001088144    0.000637158
   10          1          -0.001109174    0.000550263   -0.000786343
   11          1           0.000548866    0.000047970   -0.000253785
   12          1          -0.000037254    0.000953874    0.001129989
   13          1           0.000556101   -0.000214652   -0.000126221
 -------------------------------------------------------------------
 Cartesian Forces:  Max     0.001312503 RMS     0.000627323

 GradGradGradGradGradGradGradGradGradGradGradGradGradGradGradGradGradGrad
 Berny optimization.
 Internal  Forces:  Max     0.000824657 RMS     0.000451397
 Search for a local minimum.
 Step number   4 out of a maximum of  49
 All quantities printed in internal units (Hartrees-Bohrs-Radians)
 Update second derivatives using D2CorX and points  1  2  3  4
 Trust test= 1.17D+00 RLast= 1.13D-01 DXMaxT set to 4.24D-01
     Eigenvalues ---    0.00230   0.00230   0.00244   0.01023   0.01025
     Eigenvalues ---    0.01026   0.01660   0.03338   0.03344   0.04002
     Eigenvalues ---    0.07768   0.09096   0.09105   0.13532   0.14091
     Eigenvalues ---    0.14092   0.16000   0.16000   0.16000   0.16000
     Eigenvalues ---    0.16636   0.24263   0.25000   0.25000   0.47644
     Eigenvalues ---    0.47653   0.48305   0.52481   0.52487   0.52510
     Eigenvalues ---    0.52529   0.52536   0.570541000.000001000.00000
     Eigenvalues --- 1000.000001000.000001000.000001000.00000
 RFO step:  Lambda=-6.29305051D-05.
 Quartic linear search produced a step of  0.30167.
 Iteration  1 RMS(Cart)=  0.00911955 RMS(Int)=  0.00026688
 Iteration  2 RMS(Cart)=  0.00017581 RMS(Int)=  0.00022853
 Iteration  3 RMS(Cart)=  0.00000001 RMS(Int)=  0.00022853
 Variable       Old X    -DE/DX   Delta X   Delta X   Delta X     New X
                                 (Linear)    (Quad)   (Total)
    R1        1.82933   0.00045   0.00031   0.00019   0.00050   1.82984
    R2        1.82883   0.00042   0.00023   0.00016   0.00039   1.82923
    R3        2.93721   0.00018  -0.00898   0.00231  -0.00667   2.93054
    R4        1.91919  -0.00082   0.00186  -0.00132   0.00054   1.91973
    R5        1.91929  -0.00082   0.00184  -0.00134   0.00050   1.91979
    R6        1.91919  -0.00081   0.00185  -0.00132   0.00054   1.91973
    R7        1.82935   0.00044   0.00031   0.00018   0.00049   1.82984
    R8        2.93685   0.00018  -0.00889   0.00232  -0.00657   2.93028
    R9        1.82884   0.00041   0.00023   0.00015   0.00038   1.82923
   R10        1.82935   0.00045   0.00031   0.00018   0.00050   1.82985
   R11        2.93732   0.00018  -0.00896   0.00229  -0.00667   2.93065
   R12        1.82885   0.00041   0.00023   0.00016   0.00039   1.82923
    A1        1.83667   0.00045  -0.00015   0.00547   0.00483   1.84150
    A2        2.09392  -0.00031   0.00385   0.00204   0.00549   2.09941
    A3        2.13360   0.00039   0.00835   0.00646   0.01442   2.14803
    A4        1.95474   0.00008  -0.00337   0.00216  -0.00128   1.95345
    A5        1.95455   0.00008  -0.00336   0.00217  -0.00126   1.95328
    A6        1.95440   0.00008  -0.00337   0.00217  -0.00127   1.95313
    A7        2.09412  -0.00031   0.00386   0.00208   0.00553   2.09966
    A8        1.83673   0.00045  -0.00014   0.00547   0.00484   1.84157
    A9        2.13317   0.00040   0.00837   0.00652   0.01450   2.14767
   A10        2.09376  -0.00031   0.00384   0.00210   0.00554   2.09930
   A11        1.83663   0.00045  -0.00012   0.00546   0.00485   1.84148
   A12        2.13304   0.00039   0.00833   0.00649   0.01443   2.14747
   A13        3.01580   0.00081   0.00288   0.00340   0.00628   3.02208
   A14        3.01805   0.00075   0.00271   0.00316   0.00586   3.02391
   A15        3.01655   0.00079   0.00281   0.00332   0.00612   3.02267
    D1        1.17200  -0.00051  -0.00824  -0.01895  -0.02743   1.14457
    D2       -2.73303   0.00045   0.00868   0.00422   0.01313  -2.71990
    D3        3.12143   0.00010  -0.00414   0.00260  -0.00151   3.11992
    D4        0.90909  -0.00014   0.00609  -0.00382   0.00224   0.91133
    D5        0.90794  -0.00014   0.00651  -0.00386   0.00262   0.91056
    D6        3.12035   0.00010  -0.00371   0.00256  -0.00113   3.11923
    D7        3.10849   0.00011  -0.00364   0.00271  -0.00091   3.10758
    D8        0.89597  -0.00014   0.00658  -0.00370   0.00285   0.89882
    D9        1.17280  -0.00052  -0.00721  -0.01926  -0.02671   1.14609
   D10       -2.73246   0.00046   0.00975   0.00404   0.01403  -2.71843
   D11        1.18440  -0.00052  -0.00740  -0.01945  -0.02710   1.15730
   D12       -2.72179   0.00046   0.00948   0.00377   0.01350  -2.70830
         Item               Value     Threshold  Converged?
 Maximum Force            0.000825     0.000450     NO 
 RMS     Force            0.000451     0.000300     NO 
 Maximum Displacement     0.020914     0.001800     NO 
 RMS     Displacement     0.009150     0.001200     NO 
 Predicted change in Energy=-4.570658D-05
 GradGradGradGradGradGradGradGradGradGradGradGradGradGradGradGradGradGrad

                          Input orientation:                          
 ---------------------------------------------------------------------
 Center     Atomic     Atomic              Coordinates (Angstroms)
 Number     Number      Type              X           Y           Z
 ---------------------------------------------------------------------
    1          8             0       -0.615999    1.191414   -2.083241
    2          8             0       -0.471956    0.109217    0.234805
    3          8             0        1.292050    1.178340    1.754876
    4          8             0       -0.334201   -2.448349    0.159800
    5          1             0       -1.419291    1.672605   -2.329813
    6          1             0        1.007012    1.637396    2.558395
    7          1             0        0.107740    1.645666   -2.538049
    8          1             0       -1.069540   -2.971079    0.511455
    9          1             0       -0.473751    0.582134   -0.664281
   10          1             0        0.253114    0.466766    0.850030
   11          1             0        2.156173    0.797244    1.967128
   12          1             0       -0.418269   -0.900041    0.132235
   13          1             0        0.028532   -2.970297   -0.570266
 ---------------------------------------------------------------------
                    Distance matrix (angstroms):
                    1          2          3          4          5
     1  O    0.000000
     2  O    2.562271   0.000000
     3  O    4.286253   2.562296   0.000000
     4  O    4.284684   2.562371   4.282737   0.000000
     5  H    0.968308   3.149427   4.927510   4.935368   0.000000
     6  H    4.937393   3.149881   0.968308   4.923964   5.457359
     7  H    0.967984   3.222645   4.477744   4.922871   1.541399
     8  H    4.925900   3.149899   4.933648   0.968313   5.455175
     9  H    1.550776   1.015878   3.053823   3.143630   2.203899
    10  H    3.143970   1.015909   1.550636   3.052745   3.789774
    11  H    4.924002   3.222016   0.967985   4.472390   5.658083
    12  H    3.053132   1.015876   3.142901   1.550833   3.698950
    13  H    4.474858   3.222116   4.920768   0.967989   5.171918
                    6          7          8          9         10
     6  H    0.000000
     7  H    5.175181   0.000000
     8  H    5.453445   5.656836   0.000000
     9  H    3.700253   2.231645   3.789807   0.000000
    10  H    2.203916   3.590267   3.699030   1.683680   0.000000
    11  H    1.541435   5.021207   5.169571   3.726538   2.231313
    12  H    3.788966   3.726624   2.203896   1.683555   1.683493
    13  H    5.654801   5.018522   1.541390   3.588996   3.725732
                   11         12         13
    11  H    0.000000
    12  H    3.588225   0.000000
    13  H    5.015934   2.231389   0.000000
 Stoichiometry    H9O4(1+)
 Framework group  C1[X(H9O4)]
 Deg. of freedom    33
 Full point group                 C1
 Largest Abelian subgroup         C1      NOp   1
 Largest concise Abelian subgroup C1      NOp   1
                         Standard orientation:                         
 ---------------------------------------------------------------------
 Center     Atomic     Atomic              Coordinates (Angstroms)
 Number     Number      Type              X           Y           Z
[...]
     Eigenvalues ---    0.53753   0.53753   0.537641000.000001000.00000
     Eigenvalues --- 1000.000001000.000001000.000001000.00000
 Angle between quadratic step and forces=  83.23 degrees.
 Linear search not attempted -- first point.
 Iteration  1 RMS(Cart)=  0.00029552 RMS(Int)=  0.00000024
 Iteration  2 RMS(Cart)=  0.00000008 RMS(Int)=  0.00000000
 Variable       Old X    -DE/DX   Delta X   Delta X   Delta X     New X
                                 (Linear)    (Quad)   (Total)
    R1        1.82916  -0.00002   0.00000  -0.00003  -0.00003   1.82914
    R2        1.82840  -0.00001   0.00000  -0.00003  -0.00003   1.82838
    R3        2.93973   0.00000   0.00000  -0.00005  -0.00005   2.93968
    R4        1.91423   0.00001   0.00000   0.00002   0.00002   1.91425
    R5        1.91423   0.00001   0.00000   0.00002   0.00002   1.91425
    R6        1.91423   0.00001   0.00000   0.00002   0.00002   1.91425
    R7        1.82916  -0.00002   0.00000  -0.00003  -0.00003   1.82914
    R8        2.93973   0.00000   0.00000  -0.00005  -0.00005   2.93968
    R9        1.82840  -0.00001   0.00000  -0.00003  -0.00003   1.82838
   R10        1.82916  -0.00002   0.00000  -0.00003  -0.00003   1.82914
   R11        2.93973   0.00000   0.00000  -0.00005  -0.00005   2.93968
   R12        1.82840  -0.00001   0.00000  -0.00003  -0.00003   1.82838
    A1        1.84698   0.00000   0.00000  -0.00004  -0.00004   1.84694
    A2        2.11220   0.00000   0.00000  -0.00021  -0.00021   2.11200
    A3        2.17911   0.00001   0.00000   0.00013   0.00013   2.17924
    A4        1.96205   0.00000   0.00000   0.00008   0.00008   1.96213
    A5        1.96206   0.00000   0.00000   0.00007   0.00007   1.96213
    A6        1.96206   0.00000   0.00000   0.00007   0.00007   1.96213
    A7        2.11216   0.00000   0.00000  -0.00017  -0.00017   2.11200
    A8        1.84697   0.00000   0.00000  -0.00004  -0.00004   1.84694
    A9        2.17914   0.00001   0.00000   0.00010   0.00010   2.17924
   A10        2.11220   0.00000   0.00000  -0.00020  -0.00020   2.11200
   A11        1.84698   0.00000   0.00000  -0.00004  -0.00004   1.84694
   A12        2.17913   0.00001   0.00000   0.00011   0.00011   2.17924
   A13        3.04795   0.00000   0.00000  -0.00009  -0.00009   3.04786
   A14        3.04783   0.00000   0.00000   0.00002   0.00002   3.04786
   A15        3.04787   0.00000   0.00000  -0.00001  -0.00001   3.04786
    D1        0.90987   0.00000   0.00000  -0.00070  -0.00070   0.90917
    D2       -2.86426   0.00000   0.00000  -0.00096  -0.00096  -2.86522
    D3       -2.93433   0.00000   0.00000   0.00087   0.00087  -2.93346
    D4        1.11385   0.00000   0.00000   0.00065   0.00065   1.11451
    D5        1.11404   0.00000   0.00000   0.00047   0.00047   1.11450
    D6       -2.93415   0.00000   0.00000   0.00069   0.00069  -2.93346
    D7       -2.93363   0.00000   0.00000   0.00016   0.00016  -2.93346
    D8        1.11456   0.00000   0.00000  -0.00006  -0.00006   1.11450
    D9        0.90981   0.00000   0.00000  -0.00064  -0.00064   0.90917
   D10       -2.86435   0.00000   0.00000  -0.00086  -0.00086  -2.86522
   D11        0.90933   0.00000   0.00000  -0.00016  -0.00016   0.90917
   D12       -2.86477   0.00000   0.00000  -0.00045  -0.00045  -2.86522
         Item               Value     Threshold  Converged?
 Maximum Force            0.000016     0.000450     YES
 RMS     Force            0.000007     0.000300     YES
 Maximum Displacement     0.000782     0.001800     YES
 RMS     Displacement     0.000296     0.001200     YES
 Predicted change in Energy=-5.429062D-09
 Optimization completed.
    -- Stationary point found.
                           ----------------------------
                           !   Optimized Parameters   !
                           ! (Angstroms and Degrees)  !
 --------------------------                            --------------------------
 ! Name  Definition              Value          Derivative Info.                !
 --------------------------------------------------------------------------------
 ! R1    R(1,5)                  0.968          -DE/DX =    0.0                 !
 ! R2    R(1,7)                  0.9676         -DE/DX =    0.0                 !
 ! R3    R(1,9)                  1.5556         -DE/DX =    0.0                 !
 ! R4    R(2,9)                  1.013          -DE/DX =    0.0                 !
 ! R5    R(2,10)                 1.013          -DE/DX =    0.0                 !
 ! R6    R(2,12)                 1.013          -DE/DX =    0.0                 !
 ! R7    R(3,6)                  0.968          -DE/DX =    0.0                 !
 ! R8    R(3,10)                 1.5556         -DE/DX =    0.0                 !
 ! R9    R(3,11)                 0.9676         -DE/DX =    0.0                 !
 ! R10   R(4,8)                  0.968          -DE/DX =    0.0                 !
 ! R11   R(4,12)                 1.5556         -DE/DX =    0.0                 !
 ! R12   R(4,13)                 0.9675         -DE/DX =    0.0                 !
 ! A1    A(5,1,7)              105.8239         -DE/DX =    0.0                 !
 ! A2    A(5,1,9)              121.0203         -DE/DX =    0.0                 !
 ! A3    A(7,1,9)              124.8538         -DE/DX =    0.0                 !
 ! A4    A(9,2,10)             112.4171         -DE/DX =    0.0                 !
 ! A5    A(9,2,12)             112.4175         -DE/DX =    0.0                 !
 ! A6    A(10,2,12)            112.4179         -DE/DX =    0.0                 !
 ! A7    A(6,3,10)             121.0181         -DE/DX =    0.0                 !
 ! A8    A(6,3,11)             105.8238         -DE/DX =    0.0                 !
 ! A9    A(10,3,11)            124.8553         -DE/DX =    0.0                 !
 ! A10   A(8,4,12)             121.0201         -DE/DX =    0.0                 !
 ! A11   A(8,4,13)             105.8241         -DE/DX =    0.0                 !
 ! A12   A(12,4,13)            124.855          -DE/DX =    0.0                 !
 ! A13   A(1,9,2)              174.6347         -DE/DX =    0.0                 !
 ! A14   A(2,10,3)             174.628          -DE/DX =    0.0                 !
 ! A15   A(2,12,4)             174.63           -DE/DX =    0.0                 !
 ! D1    D(5,1,9,2)             52.1318         -DE/DX =    0.0                 !
 ! D2    D(7,1,9,2)           -164.1102         -DE/DX =    0.0                 !
 ! D3    D(10,2,9,1)          -168.1249         -DE/DX =    0.0                 !
 ! D4    D(12,2,9,1)            63.819          -DE/DX =    0.0                 !
 ! D5    D(9,2,10,3)            63.8296         -DE/DX =    0.0                 !
 ! D6    D(12,2,10,3)         -168.1145         -DE/DX =    0.0                 !
 ! D7    D(9,2,12,4)          -168.0845         -DE/DX =    0.0                 !
 ! D8    D(10,2,12,4)           63.8598         -DE/DX =    0.0                 !
 ! D9    D(6,3,10,2)            52.1285         -DE/DX =    0.0                 !
 ! D10   D(11,3,10,2)         -164.1154         -DE/DX =    0.0                 !
 ! D11   D(8,4,12,2)            52.1008         -DE/DX =    0.0                 !
 ! D12   D(13,4,12,2)         -164.139          -DE/DX =    0.0                 !
 --------------------------------------------------------------------------------
 GradGradGradGradGradGradGradGradGradGradGradGradGradGradGradGradGradGrad

 1\1\GINC-POLARIS\Freq\RMP2-FC\Aug-CC-pVDZ\H9O4(1+)\G060005\07-May-2007
 \0\\#N Geom=AllCheck Guess=Read SCRF=Check GenChk RMP2(FC)/Aug-CC-pVDZ
  Freq\\Title Card Required\\1,1\O,-0.6205622843,1.2176072803,-2.079968
 282\O,-0.4520970486,0.103752805,0.2254315878\O,1.2899188012,1.16974302
 4,1.7787930829\O,-0.3559196575,-2.4591238321,0.1459556168\H,-1.4286254
 07,1.689987393,-2.3265845589\H,1.0001557742,1.6363392218,2.575821521\H
 ,0.0948646226,1.6434849342,-2.5728634585\H,-1.0888867612,-2.9780519054
 ,0.5070664828\H,-0.4683469097,0.5692198037,-0.674112571\H,0.2634924565
 ,0.4742751868,0.8392298317\H,2.1746551141,0.8322871787,1.9775853376\H,
 -0.4020244129,-0.9041883188,0.1379766184\H,0.0349917125,-3.0043167714,
 -0.5512572086\\Version=AM64L-G03RevD.01\State=1-A\HF=-304.5499738\MP2=
 -305.4368085\RMSD=8.780e-10\RMSF=7.467e-06\ZeroPoint=0.1085095\Thermal
 =0.1195544\Dipole=0.2296198,-0.0526644,-0.1143308\DipoleDeriv=-0.49543
 89,0.0139134,-0.0479364,0.0189737,-0.5532661,0.1009031,-0.0624036,0.12
 57961,-0.8385652,-0.5470288,-0.1273165,-0.2586458,-0.1139349,-1.044967
 1,0.0735009,-0.2648012,0.0466083,-0.9422839,-0.6512869,-0.1398865,-0.1
 519216,-0.1380435,-0.6145047,-0.1112346,-0.1263949,-0.097109,-0.621476
 8,-0.5009188,0.0398232,-0.0158033,0.0110385,-0.880635,0.0366863,-0.016
 7814,0.0416348,-0.5057223,0.3484714,-0.0061476,0.0350567,0.0006687,0.2
 953495,0.0485145,0.0166768,0.0526109,0.2865208,0.2787791,-0.0172538,-0
 .0550832,-0.003975,0.3610165,0.0002535,-0.0401008,-0.0000828,0.2905432
 ,0.3207506,0.0186495,-0.0414766,0.0102526,0.2927784,0.0527149,-0.02238
 67,0.0519074,0.3070427,0.3313935,0.0099138,-0.0039199,-0.0061472,0.254
 9363,-0.0390069,-0.0023851,-0.0508687,0.3440116,0.2722194,-0.0850197,0
 .0924686,-0.1054508,0.4932685,-0.4854053,0.1366699,-0.5173666,1.115629
 6,0.7066462,0.3096293,0.4976584,0.2873897,0.4093199,0.3477048,0.444873
 1,0.3371002,0.7651526,0.3371949,0.0084046,-0.0314405,-0.0064912,0.3211
 966,-0.0351793,-0.0456175,-0.0315881,0.262182,0.2607661,0.0286118,-0.0
 231698,0.0846547,1.4098959,0.021739,-0.0207506,0.0374464,0.2104564,0.3
 384523,-0.0533214,0.0042135,-0.0389352,0.2556113,-0.0111909,0.0034021,
 0.0039111,0.3265091\Polar=32.4326611,1.1309696,37.1004838,2.4534884,-0
 .5629657,36.1377125\PG=C01 [X(H9O4)]\NImag=0\\0.68743447,-0.04893067,0
 .26778430,-0.08263234,-0.22848473,0.24653818,0.00867345,0.00332984,-0.
 00597568,0.24699556,0.00276084,-0.00612424,0.02145116,0.08448094,0.595
 78181,-0.00296076,0.02185934,-0.02984208,0.18333925,-0.04206795,0.5238
 5708,0.00033611,0.00105768,-0.00197391,-0.01195611,-0.01455780,-0.0224
 2641,0.54745329,0.00013531,0.00118319,-0.00113952,-0.01182923,0.000699
 98,-0.01222840,-0.23326528,0.21242522,-0.00019471,0.00079725,-0.001467
 25,-0.02100716,-0.01257827,-0.01603762,0.00538747,0.19866974,0.4418785
 8,0.00037525,0.00008539,-0.00009942,0.00731082,-0.00168761,-0.00177945
 ,0.00051444,-0.00014386,0.00011986,0.41038296,0.00022105,-0.00107762,0
 .00294931,-0.00339565,-0.04293093,-0.00171822,-0.00230682,-0.00084335,
 -0.00202931,0.10263196,0.42337409,0.00007986,0.00017142,0.00075404,-0.
 00091567,-0.00415034,0.00832682,0.00000435,-0.00027553,0.00038039,-0.3
 1250403,0.11926122,0.36800119,-0.37031768,0.17379141,-0.07608417,-0.00
 024552,-0.00220517,0.00375721,0.00013935,0.00006327,0.00025053,-0.0001
 5016,-0.00038871,0.00002006,0.39453970,0.21786587,-0.14037292,0.080788
 29,-0.00013868,0.00012155,0.00088934,0.00000137,-0.00013367,-0.0000736
 5,-0.00016588,-0.00001266,-0.00015076,-0.19715606,0.13456845,-0.110067
 97,0.08648466,-0.06138323,0.00106680,0.00198970,-0.00482836,0.00004666
 ,-0.00018614,-0.00004275,0.00002560,-0.00003157,-0.00002460,0.09222211
 ,-0.07784162,0.05433603,-0.00012602,0.00018020,-0.00015514,-0.00558597
 ,-0.00196484,-0.00352871,-0.08841682,0.06881923,0.08209542,-0.00008469
 ,-0.00022640,0.00008487,0.00006751,-0.00003690,-0.00009502,0.09438872,
 0.00007992,-0.00026259,0.00016921,-0.00045047,0.00009767,0.00023466,0.
 08739053,-0.12261692,-0.18863553,0.00001351,0.00008142,0.00018979,-0.0
 0001459,0.00007186,0.00007069,-0.08938777,0.13048115,0.00005883,0.0000
 7963,0.00020124,-0.00034307,-0.00028758,0.00053576,0.12835089,-0.21404
 101,-0.36103976,0.00006328,0.00018580,-0.00003387,-0.00007011,-0.00002
 932,-0.00007321,-0.11812600,0.20638991,0.35857413,-0.30317962,-0.12684
 230,0.16008058,-0.00161065,0.00270890,-0.00509660,-0.00058931,-0.00025
 643,-0.00010234,-0.00016982,0.00041869,0.00000401,-0.02471761,-0.02218
 314,0.02292566,0.00004626,-0.00001127,0.00000285,0.32528117,-0.1706367
 0,-0.11918842,0.13653666,0.00084293,0.00032372,0.00100555,0.00005771,-
 0.00017727,0.00001294,0.00012431,-0.00008366,-0.00016478,0.02201766,0.
 00687013,-0.01033369,0.00000213,0.00007371,-0.00004231,0.15001836,0.11
 326027,0.19444624,0.12597492,-0.15040124,-0.00189466,0.00135162,-0.003
 50313,-0.00019230,-0.00030150,0.00014934,-0.00001307,-0.00005682,0.000
 01094,-0.01336472,-0.00208364,0.00499636,0.00001021,0.00001207,-0.0000
 9247,-0.18551564,-0.12521974,0.14564282,-0.00017420,0.00012281,-0.0002
 2896,-0.00036366,0.00435967,0.00100899,0.00010085,0.00020905,0.0001219
 8,-0.29874330,-0.18134772,0.16327194,0.00012221,0.00005099,-0.00002700
 ,0.00006214,-0.00006411,-0.00003279,0.00000795,-0.00003323,0.00000138,
 0.31010085,0.00009231,0.00007058,0.00001540,0.00140534,-0.00433671,-0.
 00074503,0.00007561,0.00007970,-0.00002696,-0.21638062,-0.18440949,0.0
 9818999,-0.00003474,-0.00007373,0.00003974,-0.00005108,-0.00005681,-0.
 00000965,-0.00002850,-0.00000949,0.00001196,0.19925050,0.17342652,-0.0
 0007148,-0.00016439,0.00006651,0.00022434,-0.00258155,-0.00025218,-0.0
 0009255,-0.00003473,-0.00036789,0.13827755,0.06244238,-0.08892162,-0.0
 0000752,0.00009800,0.00001769,-0.00009401,-0.00009453,0.00006085,0.000
 04833,0.00003135,0.00000424,-0.16354340,-0.08507570,0.09991705,-0.0223
 6698,0.00033808,0.00228989,-0.02952784,-0.02621470,0.00618462,-0.00143
 468,-0.00114634,-0.00042537,-0.00012945,-0.00057944,-0.00037841,0.0006
 5559,0.00146813,-0.00636992,-0.00002103,-0.00043658,0.00007666,0.00351
 250,-0.00181050,0.00603444,0.00027278,-0.00000389,0.00018209,0.0494968
 5,0.00076190,-0.00096765,-0.00937680,-0.01459670,-0.11830178,0.0966550
 0,-0.00405002,-0.00342872,-0.00269061,0.00042825,0.00070372,-0.0014109
 8,0.00313102,-0.00147276,-0.00058606,-0.00047618,0.00047847,-0.0000797
 5,-0.00381683,-0.00138784,-0.00102083,-0.00038928,-0.00016512,0.000015
 69,0.00819624,0.11817700,0.00025177,-0.00627700,-0.00192854,-0.0155343
 9,0.10734379,-0.27067899,0.00352193,0.00302264,0.00301491,0.00013091,-
 0.00761873,-0.00210299,-0.00635462,-0.00205199,0.00705760,0.00044834,-
 0.00055039,-0.00009864,0.00778321,-0.00244920,0.00405549,0.00050761,-0
 .00024302,-0.00021173,0.01016407,-0.10082201,0.25868624,-0.00034815,-0
 .00302015,0.00461995,-0.18159078,-0.08187389,-0.14168225,-0.01047102,0
 .00616848,0.00977245,-0.00089456,0.00586882,-0.00080889,-0.00035145,-0
 .00008774,0.00018175,0.01100289,0.00138727,0.00189339,0.00106166,-0.00
 020364,0.00068619,-0.00032901,0.00010776,0.00029819,0.00262988,0.01144
 834,-0.00282106,0.17601425,-0.00120671,-0.00337798,0.00392511,-0.06928
 045,-0.10069379,-0.03918135,0.00665362,-0.01316539,-0.00268392,0.00068
 698,-0.00019336,0.00020525,-0.00019189,0.00010192,0.00032989,0.0016034
 1,-0.00179470,0.00002333,0.00077096,-0.00005290,0.00103288,-0.00002684
 ,-0.00017492,0.00038391,0.01601817,0.01624051,-0.00131754,0.06665181,0
 .10237669,0.00103858,-0.00094246,0.00219672,-0.11797868,-0.03843043,-0
 .13622320,0.01292614,-0.00074331,-0.00162651,-0.00069277,0.00566316,-0
 .00075969,-0.00036945,0.00041248,0.00014543,0.00198774,-0.00218109,-0.
 00296765,0.00035942,0.00034843,-0.00046017,-0.00019251,0.00006384,0.00
 086256,-0.01751865,-0.00805221,-0.01516607,0.11618647,0.04881099,0.147
 96862,-0.00000392,-0.00006348,0.00031325,0.00083638,-0.00027310,0.0006
 5104,-0.43299301,0.17101094,-0.07451097,-0.00001627,0.00024524,0.00016
 557,-0.00002692,-0.00000773,-0.00003253,-0.01129791,0.00136451,-0.0115
 2712,0.00009596,-0.00001472,-0.00005846,-0.00003560,-0.00005272,-0.000
 03046,-0.00006632,0.00011589,-0.00064060,-0.00312651,0.00127671,-0.001
 09029,0.44692202,-0.00002841,0.00000658,-0.00021387,-0.00286613,-0.003
 15031,-0.00425326,0.15398595,-0.07605364,0.00437503,0.00038385,-0.0004
 7334,0.00020235,0.00004289,0.00001768,0.00002007,0.02094270,-0.0065278
 5,0.00819152,0.00000840,0.00008927,0.00005588,-0.00008389,-0.00000874,
 -0.00003033,-0.00013780,-0.00041488,0.00005711,0.00183471,0.00580929,0
 .00678575,-0.17320978,0.07955551,0.00020541,0.00007898,-0.00024524,-0.
 00170484,-0.00299396,-0.00247563,-0.12388541,0.02634825,-0.06372248,0.
 00020011,-0.00022797,-0.00012757,-0.00002734,0.00001627,0.00001192,0.0
 3746224,-0.01537776,0.00497452,-0.00020314,0.00005485,-0.00010016,0.00
 000966,-0.00000567,0.00007181,-0.00028028,-0.00025965,0.00063823,0.001
 85569,0.00641577,0.00349675,0.08725533,-0.01452179,0.05770678,-0.00008
 815,0.00014004,-0.00039929,-0.03276304,0.03730558,-0.01800325,-0.00229
 510,0.00031687,-0.00140410,-0.01540822,0.00419281,0.00749980,0.0002569
 5,0.00030194,0.00011917,-0.00005930,0.00010982,-0.00033614,0.00010021,
 -0.00029381,-0.00014206,0.00151661,-0.00697815,-0.00101331,-0.00322249
 ,-0.00093408,0.00307452,0.00561290,-0.02331921,0.00501521,-0.00039192,
 -0.00072456,-0.00075581,0.04730638,-0.00103757,0.00215698,-0.00693073,
 0.01318632,-0.31694003,-0.02215406,0.00506802,0.00198172,0.00483809,0.
 00050396,0.00432351,0.00463167,0.00089606,0.00035916,0.00002639,0.0005
 9022,-0.00001819,-0.00036175,-0.00081130,0.00041303,0.00019525,-0.0062
 2744,0.00484683,0.00460226,0.00422588,-0.00863588,0.01205647,-0.008505
 22,-0.00478568,-0.01186775,-0.00036826,0.00120979,0.00057095,-0.012653
 24,0.30905511,-0.00019387,0.00050071,-0.00391669,-0.02002958,-0.033781
 32,-0.06880848,-0.00182143,0.00070696,-0.00121521,0.00766604,0.0051782
 9,-0.01417841,0.00004463,-0.00002624,-0.00025732,-0.00010630,-0.000167
 24,-0.00002658,-0.00024572,0.00006910,-0.00035635,-0.00233569,0.002989
 35,-0.00012252,-0.00007483,0.02773137,0.01556213,0.01001037,-0.0180189
 6,0.00287644,-0.00044053,-0.00056865,-0.00026934,0.00863871,0.02103778
 ,0.07000133,-0.00021457,-0.00018886,0.00024524,-0.00017264,-0.00283882
 ,0.00053631,-0.00038799,-0.00008201,-0.00010306,-0.10298701,0.07466618
 ,0.14347652,0.00002804,0.00008782,0.00000471,0.00002422,0.00001922,-0.
 00001068,0.00016129,-0.00007051,0.00000246,-0.01253761,0.02259818,0.02
 582222,0.00020118,0.00018146,-0.00053170,0.00078991,0.00036345,0.00032
 879,0.00010401,-0.00014791,-0.00013163,-0.00056482,0.00513257,-0.00111
 178,0.11555599,-0.00007714,0.00016979,0.00031051,-0.00068806,-0.004546
 94,0.00170440,-0.00011057,0.00004914,0.00002522,0.11351976,-0.19845836
 ,-0.21669931,0.00004886,-0.00004502,0.00001794,0.00000528,-0.00000722,
 -0.00001883,0.00002445,-0.00013054,0.00004793,-0.01582051,0.01081140,0
 .02040763,0.00008276,-0.00082507,-0.00115010,0.00022345,-0.00028969,0.
 00013259,-0.00002350,-0.00005936,-0.00009827,0.00253600,0.00603367,-0.
 00565114,-0.09972077,0.18729819,0.00004044,-0.00007832,-0.00057241,0.0
 0075333,0.00473514,-0.00006998,0.00015456,0.00020255,0.00009625,0.1686
 0539,-0.18399754,-0.27132462,-0.00001663,0.00005284,0.00004445,0.00001
 635,-0.00005979,-0.00001430,-0.00004061,0.00015084,0.00005434,0.001438
 80,-0.01520425,-0.01112476,0.00011572,-0.00010315,0.00117235,-0.000192
 26,0.00007463,-0.00034324,-0.00005424,-0.00009982,0.00004040,-0.002293
 44,-0.00664456,0.00071100,-0.16852740,0.20097144,0.28133053\\-0.000002
 68,-0.00000834,0.00000826,-0.00000234,0.00000085,0.00000148,-0.0000092
 6,0.00000069,-0.00000828,-0.00000059,0.00001047,0.00000623,-0.00001423
 ,0.00000577,-0.00000411,-0.00000573,0.00000908,0.00001168,0.00001510,0
 .00000309,-0.00000478,-0.00001137,-0.00000780,0.00000788,0.00000331,-0
 .00000347,0.00000476,-0.00000031,-0.00000543,-0.00000575,0.00001380,-0
 .00000783,-0.00000216,0.00000439,0.00000674,-0.00000298,0.00000989,-0.
 00000382,-0.00001224\\\@


 IT IS A PROFOUNDLY ERRONEOUS TRUISM ... THAT WE SHOULD CULTIVATE
 THE HABIT OF THINKING OF WHAT WE ARE DOING.
 THE PRECISE OPPOSITE IS THE CASE.
 CIVILIZATION ADVANCES BY EXTENDING THE NUMBER OF IMPORTANT OPERATIONS
 WHICH WE CAN PERFORM WITHOUT THINKING ABOUT THEM.

                                    -- ALFRED NORTH WHITEHEAD
 Job cpu time:  0 days  1 hours 21 minutes 40.6 seconds.
 File lengths (MBytes):  RWF=   4016 Int=      0 D2E=      0 Chk=      8 Scr=      1
 Normal termination of Gaussian 03 at Mon May  7 21:57:14 2007.
