 Entering Gaussian System, Link 0=g03
 Initial command:
 /usr/local/g03-em64t/g03/l1.exe /usr/scratch/NQC-pW4-DFT.std.lm.1.com/Gau-24049.inp -scrdir=/usr/scratch/NQC-pW4-DFT.std.lm.1.com/
 Entering Link 1 = /usr/local/g03-em64t/g03/l1.exe PID=     24050.
  
 Copyright (c) 1988,1990,1992,1993,1995,1998,2003,2004, Gaussian, Inc.
                  All Rights Reserved.
  
 This is the Gaussian(R) 03 program.  It is based on the
 the Gaussian(R) 98 system (copyright 1998, Gaussian, Inc.),
 the Gaussian(R) 94 system (copyright 1995, Gaussian, Inc.),
 the Gaussian 92(TM) system (copyright 1992, Gaussian, Inc.),
 the Gaussian 90(TM) system (copyright 1990, Gaussian, Inc.),
 the Gaussian 88(TM) system (copyright 1988, Gaussian, Inc.),
 the Gaussian 86(TM) system (copyright 1986, Carnegie Mellon
 University), and the Gaussian 82(TM) system (copyright 1983,
 Carnegie Mellon University). Gaussian is a federally registered
 trademark of Gaussian, Inc.
  
 This software contains proprietary and confidential information,
 including trade secrets, belonging to Gaussian, Inc.
  
 This software is provided under written license and may be
 used, copied, transmitted, or stored only in accord with that
 written license.
  
 The following legend is applicable only to US Government
 contracts under FAR:
  
                    RESTRICTED RIGHTS LEGEND
  
 Use, reproduction and disclosure by the US Government is
 subject to restrictions as set forth in subparagraphs (a)
 and (c) of the Commercial Computer Software - Restricted
 Rights clause in FAR 52.227-19.
  
 Gaussian, Inc.
 340 Quinnipiac St., Bldg. 40, Wallingford CT 06492
  
  
 ---------------------------------------------------------------
 Warning -- This program may not be used in any manner that
 competes with the business of Gaussian, Inc. or will provide
 assistance to any competitor of Gaussian, Inc.  The licensee
 of this program is prohibited from giving any competitor of
 Gaussian, Inc. access to this program.  By using this program,
 the user acknowledges that Gaussian, Inc. is engaged in the
 business of creating and licensing software in the field of
 computational chemistry and represents and warrants to the
 licensee that it is not a competitor of Gaussian, Inc. and that
 it will not use this program in any manner prohibited above.
 ---------------------------------------------------------------
  

 Cite this work as:
 Gaussian 03, Revision D.01,
 M. J. Frisch, G. W. Trucks, H. B. Schlegel, G. E. Scuseria, 
 M. A. Robb, J. R. Cheeseman, J. A. Montgomery, Jr., T. Vreven, 
 K. N. Kudin, J. C. Burant, J. M. Millam, S. S. Iyengar, J. Tomasi, 
 V. Barone, B. Mennucci, M. Cossi, G. Scalmani, N. Rega, 
 G. A. Petersson, H. Nakatsuji, M. Hada, M. Ehara, K. Toyota, 
 R. Fukuda, J. Hasegawa, M. Ishida, T. Nakajima, Y. Honda, O. Kitao, 
 H. Nakai, M. Klene, X. Li, J. E. Knox, H. P. Hratchian, J. B. Cross, 
 V. Bakken, C. Adamo, J. Jaramillo, R. Gomperts, R. E. Stratmann, 
 O. Yazyev, A. J. Austin, R. Cammi, C. Pomelli, J. W. Ochterski, 
 P. Y. Ayala, K. Morokuma, G. A. Voth, P. Salvador, J. J. Dannenberg, 
 V. G. Zakrzewski, S. Dapprich, A. D. Daniels, M. C. Strain, 
 O. Farkas, D. K. Malick, A. D. Rabuck, K. Raghavachari, 
 J. B. Foresman, J. V. Ortiz, Q. Cui, A. G. Baboul, S. Clifford, 
 J. Cioslowski, B. B. Stefanov, G. Liu, A. Liashenko, P. Piskorz, 
 I. Komaromi, R. L. Martin, D. J. Fox, T. Keith, M. A. Al-Laham, 
 C. Y. Peng, A. Nanayakkara, M. Challacombe, P. M. W. Gill, 
 B. Johnson, W. Chen, M. W. Wong, C. Gonzalez, and J. A. Pople, 
 Gaussian, Inc., Wallingford CT, 2004.
 
 ******************************************
 Gaussian 03:  AM64L-G03RevD.01 13-Oct-2005
                14-Aug-2007 
 ******************************************
 %chk=pW4-DFT.std.lm.1.chk
 %mem=128MW
 %nproc=2
 Will use up to    2 processors via shared memory.
 --------------------------
 # freq opt mp2/aug-cc-pvDZ
 --------------------------
 1/18=20,38=1/1,3;
 2/9=110,17=6,18=5,40=1/2;
 3/5=16,7=10,11=9,16=1,25=1,30=1/1,2,3;
 4//1;
 5/5=2,38=5/2;
 8/6=4,10=1/1;
 9/15=2,16=-3/6;
 10/5=1/2;
 6/7=2,8=2,9=2,10=2/1;
 7/12=2/1,2,3,16;
 1/18=20/3(3);
 2/9=110/2;
 6/7=2,8=2,9=2,10=2/1;
 99//99;
 2/9=110/2;
 3/5=16,7=10,11=9,16=1,25=1,30=1/1,2,3;
 4/5=5,16=3/1;
 5/5=2,38=5/2;
 8/6=4,10=1/1;
 9/15=2,16=-3/6;
 10/5=1/2;
 7/12=2/1,2,3,16;
 1/18=20/3(-8);
 2/9=110/2;
 6/7=2,8=2,9=2,10=2/1;
 99//99;
 -------------------
 Title Card Required
 -------------------
 Symbolic Z-matrix:
 Charge =  1 Multiplicity = 1
 O                    -0.11248   1.83013   0.02188 
 O                    -1.82567  -0.00227   0.05392 
 O                     2.05059  -0.00227   0.05392 
 O                    -0.11244  -1.82558  -0.12971 
 H                    -0.153     2.64964   0.54212 
 H                     0.77769   1.42577   0.12736 
 H                     2.57545   0.03173  -0.76606 
 H                    -0.15294  -2.68522   0.32115 
 H                     0.77769  -1.43121   0.00887 
 H                    -2.43549   0.02931  -0.70825 
 H                    -1.19551  -0.84702  -0.00768 
 H                    -1.19564   0.8447    0.06248 
 H                     2.70354  -0.03222   0.77554 
 

 GradGradGradGradGradGradGradGradGradGradGradGradGradGradGradGradGradGrad
 Berny optimization.
 Initialization pass.
                           ----------------------------
                           !    Initial Parameters    !
                           ! (Angstroms and Degrees)  !
 --------------------------                            --------------------------
 ! Name  Definition              Value          Derivative Info.                !
 --------------------------------------------------------------------------------
 ! R1    R(1,5)                  0.9715         estimate D2E/DX2                !
 ! R2    R(1,6)                  0.9834         estimate D2E/DX2                !
 ! R3    R(1,12)                 1.4649         estimate D2E/DX2                !
 ! R4    R(2,10)                 0.9766         estimate D2E/DX2                !
 ! R5    R(2,11)                 1.0557         estimate D2E/DX2                !
 ! R6    R(2,12)                 1.0556         estimate D2E/DX2                !
 ! R7    R(3,6)                  1.9144         estimate D2E/DX2                !
 ! R8    R(3,7)                  0.9742         estimate D2E/DX2                !
 ! R9    R(3,9)                  1.9142         estimate D2E/DX2                !
 ! R10   R(3,13)                 0.9736         estimate D2E/DX2                !
 ! R11   R(4,8)                  0.9715         estimate D2E/DX2                !
 ! R12   R(4,9)                  0.9834         estimate D2E/DX2                !
 ! R13   R(4,11)                 1.4648         estimate D2E/DX2                !
 ! A1    A(5,1,6)              109.0968         estimate D2E/DX2                !
 ! A2    A(5,1,12)             121.4493         estimate D2E/DX2                !
 ! A3    A(6,1,12)             112.9381         estimate D2E/DX2                !
 ! A4    A(10,2,11)            110.6753         estimate D2E/DX2                !
 ! A5    A(10,2,12)            110.6741         estimate D2E/DX2                !
 ! A6    A(11,2,12)            106.6316         estimate D2E/DX2                !
 ! A7    A(6,3,7)              111.3764         estimate D2E/DX2                !
 ! A8    A(6,3,9)               96.6382         estimate D2E/DX2                !
 ! A9    A(6,3,13)             116.1304         estimate D2E/DX2                !
 ! A10   A(7,3,9)              111.3782         estimate D2E/DX2                !
 ! A11   A(7,3,13)             105.2836         estimate D2E/DX2                !
 ! A12   A(9,3,13)             116.1316         estimate D2E/DX2                !
 ! A13   A(8,4,9)              109.0975         estimate D2E/DX2                !
 ! A14   A(8,4,11)             121.4421         estimate D2E/DX2                !
 ! A15   A(9,4,11)             112.9317         estimate D2E/DX2                !
 ! A16   A(1,6,3)              154.755          estimate D2E/DX2                !
 ! A17   A(3,9,4)              154.7688         estimate D2E/DX2                !
 ! A18   A(2,11,4)             168.7572         estimate D2E/DX2                !
 ! A19   A(1,12,2)             168.7518         estimate D2E/DX2                !
 ! D1    D(5,1,6,3)            161.2252         estimate D2E/DX2                !
 ! D2    D(12,1,6,3)            22.9753         estimate D2E/DX2                !
 ! D3    D(5,1,12,2)          -150.2726         estimate D2E/DX2                !
 ! D4    D(6,1,12,2)           -17.7989         estimate D2E/DX2                !
 ! D5    D(10,2,11,4)          113.2485         estimate D2E/DX2                !
 ! D6    D(12,2,11,4)           -7.1863         estimate D2E/DX2                !
 ! D7    D(10,2,12,1)         -113.2493         estimate D2E/DX2                !
 ! D8    D(11,2,12,1)            7.1863         estimate D2E/DX2                !
 ! D9    D(7,3,6,1)             97.725          estimate D2E/DX2                !
 ! D10   D(9,3,6,1)            -18.3564         estimate D2E/DX2                !
 ! D11   D(13,3,6,1)          -141.7903         estimate D2E/DX2                !
 ! D12   D(6,3,9,4)             18.3601         estimate D2E/DX2                !
 ! D13   D(7,3,9,4)            -97.7198         estimate D2E/DX2                !
 ! D14   D(13,3,9,4)           141.7932         estimate D2E/DX2                !
 ! D15   D(8,4,9,3)           -161.2109         estimate D2E/DX2                !
 ! D16   D(11,4,9,3)           -22.9771         estimate D2E/DX2                !
 ! D17   D(8,4,11,2)           150.2546         estimate D2E/DX2                !
 ! D18   D(9,4,11,2)            17.7956         estimate D2E/DX2                !
 --------------------------------------------------------------------------------
 Trust Radius=3.00D-01 FncErr=1.00D-07 GrdErr=1.00D-07
 Number of steps in this run=  60 maximum allowed number of steps= 100.
 GradGradGradGradGradGradGradGradGradGradGradGradGradGradGradGradGradGrad

                          Input orientation:                          
 ---------------------------------------------------------------------
 Center     Atomic     Atomic              Coordinates (Angstroms)
 Number     Number      Type              X           Y           Z
 ---------------------------------------------------------------------
    1          8             0       -0.112476    1.830128    0.021876
    2          8             0       -1.825673   -0.002274    0.053916
    3          8             0        2.050586   -0.002274    0.053916
    4          8             0       -0.112437   -1.825581   -0.129710
    5          1             0       -0.152998    2.649637    0.542117
    6          1             0        0.777692    1.425766    0.127364
    7          1             0        2.575448    0.031729   -0.766064
    8          1             0       -0.152936   -2.685216    0.321152
    9          1             0        0.777689   -1.431209    0.008867
   10          1             0       -2.435487    0.029312   -0.708253
   11          1             0       -1.195506   -0.847018   -0.007682
   12          1             0       -1.195635    0.844697    0.062480
   13          1             0        2.703543   -0.032224    0.775537
 ---------------------------------------------------------------------
                    Distance matrix (angstroms):
                    1          2          3          4          5
     1  O    0.000000
     2  O    2.508738   0.000000
     3  O    2.835059   3.876259   0.000000
     4  O    3.658850   2.508654   2.834931   0.000000
     5  H    0.971539   3.173139   3.482349   4.525547   0.000000
     6  H    0.983380   2.970219   1.914406   3.380780   1.592502
     7  H    3.328667   4.476984   0.974168   3.328554   4.001150
     8  H    4.525432   3.172955   3.482112   0.971540   5.339427
     9  H    3.380663   2.970081   1.914197   0.983391   4.219459
    10  H    3.028598   0.976613   4.550467   3.028515   3.693140
    11  H    2.888068   1.055697   3.354773   1.464758   3.689946
    12  H    1.464908   1.055643   3.354904   2.888017   2.138914
    13  H    3.459237   4.586440   0.973646   3.459096   3.925136
                    6          7          8          9         10
     6  H    0.000000
     7  H    2.444070   0.000000
     8  H    4.219454   4.000988   0.000000
     9  H    2.859431   2.443899   1.592520   0.000000
    10  H    3.601786   5.011269   3.693017   3.601650   0.000000
    11  H    3.012855   3.945559   2.138704   2.057924   1.672216
    12  H    2.058123   3.945690   3.689772   3.012745   1.672159
    13  H    2.500953   1.548235   3.924832   2.500771   5.349304
                   11         12         13
    11  H    0.000000
    12  H    1.693169   0.000000
    13  H    4.059545   4.059683   0.000000
 Stoichiometry    H9O4(1+)
 Framework group  C1[X(H9O4)]
 Deg. of freedom    33
 Full point group                 C1
 Largest Abelian subgroup         C1      NOp   1
 Largest concise Abelian subgroup C1      NOp   1
                         Standard orientation:                         
 ---------------------------------------------------------------------
 Center     Atomic     Atomic              Coordinates (Angstroms)
 Number     Number      Type              X           Y           Z
 ---------------------------------------------------------------------
    1          8             0        0.155571    1.829445    0.058987
    2          8             0        1.865597   -0.000203   -0.089228
    3          8             0       -2.009588    0.000128    0.002021
    4          8             0        0.155221   -1.829405    0.059015
    5          1             0        0.184717    2.669798   -0.427680
    6          1             0       -0.737259    1.429876   -0.042171
    7          1             0       -2.514985    0.000179    0.834834
    8          1             0        0.184194   -2.669629   -0.427887
    9          1             0       -0.737499   -1.429555   -0.042119
   10          1             0        2.493199   -0.000269    0.659029
   11          1             0        1.236158   -0.846720   -0.047847
   12          1             0        1.236430    0.846450   -0.047877
   13          1             0       -2.679366    0.000152   -0.704650
 ---------------------------------------------------------------------
 Rotational constants (GHZ):      3.9103974      3.4289025      1.8570741
 Standard basis: Aug-CC-pVDZ (5D, 7F)
 There are   173 symmetry adapted basis functions of A   symmetry.
 Integral buffers will be    131072 words long.
 Raffenetti 1 integral format.
 Two-electron integral symmetry is turned on.
   173 basis functions,   271 primitive gaussians,   181 cartesian basis functions
    20 alpha electrons       20 beta electrons
       nuclear repulsion energy       152.6677905357 Hartrees.
 NAtoms=   13 NActive=   13 NUniq=   13 SFac= 7.50D-01 NAtFMM=   80 NAOKFM=F Big=F
 One-electron integrals computed using PRISM.
 NBasis=   173 RedAO= T  NBF=   173
 NBsUse=   173 1.00D-06 NBFU=   173
 Harris functional with IExCor=  205 diagonalized for initial guess.
 ExpMin= 2.97D-02 ExpMax= 1.17D+04 ExpMxC= 4.01D+02 IAcc=3 IRadAn=         5 AccDes= 0.00D+00
 HarFok:  IExCor= 205 AccDes= 0.00D+00 IRadAn=         5 IDoV=1
 ScaDFX=  1.000000  1.000000  1.000000  1.000000
 Initial guess orbital symmetries:
       Occupied  (A) (A) (A) (A) (A) (A) (A) (A) (A) (A) (A) (A)
                 (A) (A) (A) (A) (A) (A) (A) (A)
       Virtual   (A) (A) (A) (A) (A) (A) (A) (A) (A) (A) (A) (A)
                 (A) (A) (A) (A) (A) (A) (A) (A) (A) (A) (A) (A)
                 (A) (A) (A) (A) (A) (A) (A) (A) (A) (A) (A) (A)
                 (A) (A) (A) (A) (A) (A) (A) (A) (A) (A) (A) (A)
                 (A) (A) (A) (A) (A) (A) (A) (A) (A) (A) (A) (A)
                 (A) (A) (A) (A) (A) (A) (A) (A) (A) (A) (A) (A)
                 (A) (A) (A) (A) (A) (A) (A) (A) (A) (A) (A) (A)
                 (A) (A) (A) (A) (A) (A) (A) (A) (A) (A) (A) (A)
                 (A) (A) (A) (A) (A) (A) (A) (A) (A) (A) (A) (A)
                 (A) (A) (A) (A) (A) (A) (A) (A) (A) (A) (A) (A)
                 (A) (A) (A) (A) (A) (A) (A) (A) (A) (A) (A) (A)
                 (A) (A) (A) (A) (A) (A) (A) (A) (A) (A) (A) (A)
                 (A) (A) (A) (A) (A) (A) (A) (A) (A)
 The electronic state of the initial guess is 1-A.
 Requested convergence on RMS density matrix=1.00D-08 within 128 cycles.
 Requested convergence on MAX density matrix=1.00D-06.
 Requested convergence on             energy=1.00D-06.
 No special actions if energy rises.
 SCF Done:  E(RHF) =  -304.536587881     A.U. after   11 cycles
             Convg  =    0.5167D-08             -V/T =  2.0020
             S**2   =   0.0000
 ExpMin= 2.97D-02 ExpMax= 1.17D+04 ExpMxC= 4.01D+02 IAcc=3 IRadAn=         5 AccDes= 0.00D+00
 HarFok:  IExCor= 205 AccDes= 0.00D+00 IRadAn=         5 IDoV=1
 ScaDFX=  1.000000  1.000000  1.000000  1.000000
 Range of M.O.s used for correlation:     5   173
 NBasis=   173 NAE=    20 NBE=    20 NFC=     4 NFV=     0
 NROrb=    169 NOA=    16 NOB=    16 NVA=   153 NVB=   153

 **** Warning!!: The largest alpha MO coefficient is  0.10479142D+02

 Fully direct method using O(ONN) memory.
 JobTyp=1 Pass  1:  I=   5 to  20 NPSUse=  2 ParTrn=T ParDer=T DoDerP=T.
 Spin components of T(2) and E(2):
     alpha-alpha T2 =       0.3111361601D-01 E2=     -0.1151192677D+00
     alpha-beta  T2 =       0.1728459782D+00 E2=     -0.6635552099D+00
     beta-beta   T2 =       0.3111361601D-01 E2=     -0.1151192677D+00
 ANorm=    0.1111338477D+01
 E2 =    -0.8937937453D+00 EUMP2 =    -0.30543038162587D+03
 DoAtom=TTTTTTTTTTTTT
          Differentiating once with respect to electric field.
                with respect to dipole field.
          Differentiating once with respect to nuclear coordinates.
          There are   1 degrees of freedom in the 1st order CPHF.
 Petite list used in FoFDir.
 MinBra= 0 MaxBra= 2 Meth= 1.
 IRaf=       0 NMat=   1 IRICut=       1 DoRegI=T DoRafI=F ISym2E= 1 JSym2E=1.
     1 vectors were produced by pass  0.
 AX will form   1 AO Fock derivatives at one time.
     1 vectors were produced by pass  1.
     1 vectors were produced by pass  2.
     1 vectors were produced by pass  3.
     1 vectors were produced by pass  4.
     1 vectors were produced by pass  5.
     1 vectors were produced by pass  6.
     1 vectors were produced by pass  7.
     1 vectors were produced by pass  8.
     1 vectors were produced by pass  9.
     1 vectors were produced by pass 10.
     1 vectors were produced by pass 11.
 Inv2:  IOpt= 1 Iter= 1 AM= 2.87D-16 Conv= 1.00D-12.
 Inverted reduced A of dimension   12 with in-core refinement.
 End of Minotr Frequency-dependent properties file   721 does not exist.

 **********************************************************************

            Population analysis using the SCF density.

 **********************************************************************

 Orbital symmetries:
       Occupied  (A) (A) (A) (A) (A) (A) (A) (A) (A) (A) (A) (A)
                 (A) (A) (A) (A) (A) (A) (A) (A)
       Virtual   (A) (A) (A) (A) (A) (A) (A) (A) (A) (A) (A) (A)
                 (A) (A) (A) (A) (A) (A) (A) (A) (A) (A) (A) (A)
                 (A) (A) (A) (A) (A) (A) (A) (A) (A) (A) (A) (A)
                 (A) (A) (A) (A) (A) (A) (A) (A) (A) (A) (A) (A)
                 (A) (A) (A) (A) (A) (A) (A) (A) (A) (A) (A) (A)
                 (A) (A) (A) (A) (A) (A) (A) (A) (A) (A) (A) (A)
                 (A) (A) (A) (A) (A) (A) (A) (A) (A) (A) (A) (A)
                 (A) (A) (A) (A) (A) (A) (A) (A) (A) (A) (A) (A)
                 (A) (A) (A) (A) (A) (A) (A) (A) (A) (A) (A) (A)
                 (A) (A) (A) (A) (A) (A) (A) (A) (A) (A) (A) (A)
                 (A) (A) (A) (A) (A) (A) (A) (A) (A) (A) (A) (A)
                 (A) (A) (A) (A) (A) (A) (A) (A) (A) (A) (A) (A)
                 (A) (A) (A) (A) (A) (A) (A) (A) (A)
 The electronic state is 1-A.
 Alpha  occ. eigenvalues --  -20.83009 -20.77826 -20.76892 -20.76890  -1.62464
 Alpha  occ. eigenvalues --   -1.55554  -1.54783  -1.53893  -0.97736  -0.96530
 Alpha  occ. eigenvalues --   -0.92198  -0.91476  -0.90945  -0.82602  -0.78710
 Alpha  occ. eigenvalues --   -0.77122  -0.75644  -0.70981  -0.70935  -0.70418
 Alpha virt. eigenvalues --   -0.09857  -0.07585  -0.06784  -0.05780  -0.04578
 Alpha virt. eigenvalues --   -0.03523  -0.02254  -0.02028  -0.00822   0.03488
 Alpha virt. eigenvalues --    0.03913   0.05699   0.05911   0.07571   0.07607
 Alpha virt. eigenvalues --    0.08303   0.09189   0.10149   0.10633   0.11721
 Alpha virt. eigenvalues --    0.11886   0.13750   0.14455   0.14927   0.15750
 Alpha virt. eigenvalues --    0.16634   0.17914   0.18389   0.19940   0.21030
 Alpha virt. eigenvalues --    0.24721   0.26189   0.27214   0.29217   0.30376
 Alpha virt. eigenvalues --    0.30697   0.32088   0.34686   0.37013   0.37861
 Alpha virt. eigenvalues --    0.38196   0.38650   0.39311   0.41967   0.41980
 Alpha virt. eigenvalues --    0.43077   0.44480   0.44857   0.45383   0.45959
 Alpha virt. eigenvalues --    0.48584   0.48688   0.51932   0.52506   0.53023
 Alpha virt. eigenvalues --    0.54032   0.56862   0.63155   0.64750   0.65015
 Alpha virt. eigenvalues --    0.66605   0.71601   0.72855   0.76285   0.76506
 Alpha virt. eigenvalues --    0.79802   0.82220   0.86592   0.91672   0.91716
 Alpha virt. eigenvalues --    0.97056   0.98947   0.99730   1.01561   1.02869
 Alpha virt. eigenvalues --    1.08466   1.09306   1.12430   1.13085   1.14395
 Alpha virt. eigenvalues --    1.19132   1.21092   1.24112   1.27836   1.28172
 Alpha virt. eigenvalues --    1.32225   1.34778   1.36362   1.41621   1.43521
 Alpha virt. eigenvalues --    1.49678   1.49897   1.54787   1.65235   1.71236
 Alpha virt. eigenvalues --    1.74164   1.78699   1.80565   1.83380   1.83428
 Alpha virt. eigenvalues --    1.89801   1.91127   1.91339   1.95451   1.96066
 Alpha virt. eigenvalues --    2.00825   2.02131   2.09316   2.17525   2.22351
 Alpha virt. eigenvalues --    2.25839   2.28499   2.29868   2.30071   2.32544
 Alpha virt. eigenvalues --    2.33551   2.40620   2.40724   2.45353   2.51110
 Alpha virt. eigenvalues --    2.56780   2.58909   2.58916   2.66530   2.67335
 Alpha virt. eigenvalues --    2.70689   2.71319   2.84122   2.84419   2.93278
 Alpha virt. eigenvalues --    2.94047   3.00471   3.03668   3.49392   3.49742
 Alpha virt. eigenvalues --    3.51598   3.53980   3.56861   3.57597   3.57671
 Alpha virt. eigenvalues --    3.61050   3.62216   3.67975   3.74871   3.85392
 Alpha virt. eigenvalues --    3.91192   3.95303   4.02568   4.11410   4.13250
 Alpha virt. eigenvalues --    4.15898   4.22208   4.32766
          Condensed to atoms (all electrons):
              1          2          3          4          5          6
     1  O    7.951964  -0.073445  -0.018815  -0.009539   0.363862   0.332328
     2  O   -0.073445   7.756439   0.002530  -0.073448  -0.001810  -0.004139
     3  O   -0.018815   0.002530   8.064836  -0.018826  -0.003841  -0.020956
     4  O   -0.009539  -0.073448  -0.018826   7.952001   0.000274  -0.000331
     5  H    0.363862  -0.001810  -0.003841   0.000274   0.478576  -0.060357
     6  H    0.332328  -0.004139  -0.020956  -0.000331  -0.060357   0.432098
     7  H   -0.001657  -0.000621   0.354497  -0.001658  -0.000278  -0.000804
     8  H    0.000273  -0.001811  -0.003847   0.363882   0.000166  -0.000533
     9  H   -0.000331  -0.004147  -0.020962   0.332294  -0.000533   0.002639
    10  H    0.000030   0.358067  -0.000358   0.000028  -0.000743   0.000972
    11  H   -0.000769   0.224764   0.002012  -0.032192  -0.000124  -0.000170
    12  H   -0.032206   0.224835   0.002013  -0.000777  -0.004120  -0.001261
    13  H   -0.000631   0.000691   0.345181  -0.000633   0.000480  -0.002531
              7          8          9         10         11         12
     1  O   -0.001657   0.000273  -0.000331   0.000030  -0.000769  -0.032206
     2  O   -0.000621  -0.001811  -0.004147   0.358067   0.224764   0.224835
     3  O    0.354497  -0.003847  -0.020962  -0.000358   0.002012   0.002013
     4  O   -0.001658   0.363882   0.332294   0.000028  -0.032192  -0.000777
     5  H   -0.000278   0.000166  -0.000533  -0.000743  -0.000124  -0.004120
     6  H   -0.000804  -0.000533   0.002639   0.000972  -0.000170  -0.001261
     7  H    0.426197  -0.000278  -0.000806   0.000116  -0.000264  -0.000264
     8  H   -0.000278   0.478576  -0.060349  -0.000743  -0.004122  -0.000124
     9  H   -0.000806  -0.060349   0.432053   0.000973  -0.001264  -0.000170
    10  H    0.000116  -0.000743   0.000973   0.421190  -0.023283  -0.023286
    11  H   -0.000264  -0.004122  -0.001264  -0.023283   0.240495   0.004950
    12  H   -0.000264  -0.000124  -0.000170  -0.023286   0.004950   0.240554
    13  H   -0.056227   0.000480  -0.002533  -0.000232   0.000321   0.000321
             13
     1  O   -0.000631
     2  O    0.000691
     3  O    0.345181
     4  O   -0.000633
     5  H    0.000480
     6  H   -0.002531
     7  H   -0.056227
     8  H    0.000480
     9  H   -0.002533
    10  H   -0.000232
    11  H    0.000321
    12  H    0.000321
    13  H    0.433352
 Mulliken atomic charges:
              1
     1  O   -0.511065
     2  O   -0.407906
     3  O   -0.683462
     4  O   -0.511076
     5  H    0.228447
     6  H    0.323044
     7  H    0.282045
     8  H    0.228429
     9  H    0.323135
    10  H    0.267267
    11  H    0.589646
    12  H    0.589534
    13  H    0.281961
 Sum of Mulliken charges=   1.00000
 Atomic charges with hydrogens summed into heavy atoms:
              1
     1  O    0.040426
     2  O    1.038542
     3  O   -0.119456
     4  O    0.040488
     5  H    0.000000
     6  H    0.000000
     7  H    0.000000
     8  H    0.000000
     9  H    0.000000
    10  H    0.000000
    11  H    0.000000
    12  H    0.000000
    13  H    0.000000
 Sum of Mulliken charges=   1.00000
 Electronic spatial extent (au):  <R**2>=   596.8453
 Charge=     1.0000 electrons
 Dipole moment (field-independent basis, Debye):
    X=    -1.1689    Y=     0.0001    Z=    -0.5154  Tot=     1.2775
 Quadrupole moment (field-independent basis, Debye-Ang):
   XX=    -1.9848   YY=    -9.6216   ZZ=   -23.0594
   XY=    -0.0006   XZ=     3.4056   YZ=     0.0007
 Traceless Quadrupole moment (field-independent basis, Debye-Ang):
   XX=     9.5705   YY=     1.9336   ZZ=   -11.5041
   XY=    -0.0006   XZ=     3.4056   YZ=     0.0007
 Octapole moment (field-independent basis, Debye-Ang**2):
  XXX=   -17.7038  YYY=     0.0068  ZZZ=     0.7015  XYY=     2.7905
  XXY=     0.0014  XXZ=    10.6562  XZZ=    -4.8652  YZZ=    -0.0012
  YYZ=   -16.4591  XYZ=    -0.0027
 Hexadecapole moment (field-independent basis, Debye-Ang**3):
 XXXX=  -147.0941 YYYY=  -137.8874 ZZZZ=   -23.4544 XXXY=    -0.0125
 XXXZ=    30.7298 YYYX=     0.0128 YYYZ=     0.0064 ZZZX=     2.0413
 ZZZY=     0.0010 XXYY=   -98.0062 XXZZ=   -34.9051 YYZZ=   -51.6776
 XXYZ=    -0.0032 YYXZ=    -2.2771 ZZXY=    -0.0020
 N-N= 1.526677905357D+02 E-N=-1.019604498556D+03  KE= 3.039279395760D+02
 ***** Axes restored to original set *****
 -------------------------------------------------------------------
 Center     Atomic                   Forces (Hartrees/Bohr)
 Number     Number              X              Y              Z
 -------------------------------------------------------------------
    1          8           0.000214305   -0.000752387    0.001492443
    2          8           0.002922198    0.000084334   -0.002046615
    3          8           0.001542162    0.000026195   -0.000620207
    4          8           0.000214521    0.000628891    0.001550278
    5          1           0.002272277   -0.003603257   -0.001800812
    6          1          -0.004305998    0.003251335    0.000848358
    7          1          -0.000088849   -0.000191715    0.004616979
    8          1           0.002272973    0.003738662   -0.001497345
    9          1          -0.004305072   -0.003312904    0.000577144
   10          1           0.003172287   -0.000127275    0.003079841
   11          1          -0.001382246    0.004507588   -0.000723006
   12          1          -0.001379703   -0.004431267   -0.001093846
   13          1          -0.001148855    0.000181801   -0.004383212
 -------------------------------------------------------------------
 Cartesian Forces:  Max     0.004616979 RMS     0.002431696

 GradGradGradGradGradGradGradGradGradGradGradGradGradGradGradGradGradGrad
 Berny optimization.
 Internal  Forces:  Max     0.006026947 RMS     0.002216569
 Search for a local minimum.
 Step number   1 out of a maximum of  60
 All quantities printed in internal units (Hartrees-Bohrs-Radians)
 Second derivative matrix not updated -- first step.
     Eigenvalues ---    0.00237   0.00258   0.00273   0.00733   0.00878
     Eigenvalues ---    0.02817   0.03434   0.05023   0.05327   0.05555
     Eigenvalues ---    0.08025   0.09731   0.10081   0.11661   0.12206
     Eigenvalues ---    0.12463   0.12472   0.13869   0.14198   0.15976
     Eigenvalues ---    0.19596   0.19871   0.20961   0.24929   0.38390
     Eigenvalues ---    0.38746   0.49526   0.50463   0.52048   0.52534
     Eigenvalues ---    0.52639   0.53064   0.530641000.000001000.00000
     Eigenvalues --- 1000.000001000.000001000.000001000.000001000.00000
     Eigenvalues --- 1000.000001000.000001000.000001000.000001000.00000
     Eigenvalues --- 1000.000001000.000001000.000001000.000001000.00000
 RFO step:  Lambda=-7.51720736D-04.
 Linear search not attempted -- first point.
 Iteration  1 RMS(Cart)=  0.01263914 RMS(Int)=  0.00009644
 Iteration  2 RMS(Cart)=  0.00008930 RMS(Int)=  0.00003247
 Iteration  3 RMS(Cart)=  0.00000001 RMS(Int)=  0.00003247
 Variable       Old X    -DE/DX   Delta X   Delta X   Delta X     New X
                                 (Linear)    (Quad)   (Total)
    R1        1.83594  -0.00410   0.00000  -0.00771  -0.00771   1.82823
    R2        1.85832  -0.00515   0.00000  -0.01022  -0.01022   1.84810
    R3        2.76828  -0.00178   0.00000  -0.01384  -0.01384   2.75443
    R4        1.84553  -0.00439   0.00000  -0.00842  -0.00842   1.83711
    R5        1.99498  -0.00603   0.00000  -0.01516  -0.01516   1.97982
    R6        1.99488  -0.00603   0.00000  -0.01516  -0.01516   1.97972
    R7        3.61770  -0.00011   0.00000  -0.00386  -0.00386   3.61384
    R8        1.84091  -0.00394   0.00000  -0.00749  -0.00749   1.83342
    R9        3.61731  -0.00011   0.00000  -0.00386  -0.00386   3.61345
   R10        1.83992  -0.00402   0.00000  -0.00763  -0.00763   1.83229
   R11        1.83594  -0.00410   0.00000  -0.00771  -0.00771   1.82823
   R12        1.85834  -0.00515   0.00000  -0.01022  -0.01022   1.84812
   R13        2.76799  -0.00178   0.00000  -0.01383  -0.01383   2.75416
    A1        1.90410  -0.00219   0.00000  -0.02007  -0.02008   1.88401
    A2        2.11969   0.00129   0.00000   0.00555   0.00547   2.12516
    A3        1.97114   0.00054   0.00000   0.00027   0.00023   1.97137
    A4        1.93165  -0.00013   0.00000  -0.00599  -0.00603   1.92562
    A5        1.93163  -0.00013   0.00000  -0.00600  -0.00603   1.92560
    A6        1.86107  -0.00063   0.00000  -0.00456  -0.00459   1.85649
    A7        1.94388   0.00088   0.00000   0.00772   0.00771   1.95159
    A8        1.68666  -0.00112   0.00000  -0.00481  -0.00482   1.68183
    A9        2.02686   0.00082   0.00000   0.00517   0.00518   2.03204
   A10        1.94392   0.00088   0.00000   0.00771   0.00771   1.95162
   A11        1.83755  -0.00198   0.00000  -0.01807  -0.01807   1.81948
   A12        2.02688   0.00082   0.00000   0.00517   0.00518   2.03206
   A13        1.90411  -0.00219   0.00000  -0.02007  -0.02009   1.88402
   A14        2.11956   0.00129   0.00000   0.00556   0.00548   2.12505
   A15        1.97103   0.00054   0.00000   0.00028   0.00024   1.97127
   A16        2.70098  -0.00055   0.00000  -0.00180  -0.00182   2.69916
   A17        2.70123  -0.00055   0.00000  -0.00181  -0.00183   2.69940
   A18        2.94537   0.00082   0.00000   0.00439   0.00439   2.94975
   A19        2.94527   0.00082   0.00000   0.00439   0.00439   2.94966
    D1        2.81391   0.00040   0.00000  -0.00264  -0.00255   2.81136
    D2        0.40099   0.00021   0.00000   0.00945   0.00940   0.41040
    D3       -2.62275   0.00097   0.00000   0.01866   0.01871  -2.60404
    D4       -0.31065  -0.00049   0.00000  -0.00744  -0.00745  -0.31810
    D5        1.97656  -0.00048   0.00000  -0.00414  -0.00413   1.97243
    D6       -0.12543   0.00015   0.00000   0.00932   0.00927  -0.11615
    D7       -1.97657   0.00048   0.00000   0.00414   0.00413  -1.97245
    D8        0.12542  -0.00015   0.00000  -0.00931  -0.00927   0.11615
    D9        1.70562   0.00082   0.00000   0.01118   0.01119   1.71681
   D10       -0.32038   0.00011   0.00000   0.00243   0.00244  -0.31794
   D11       -2.47471  -0.00052   0.00000  -0.00301  -0.00301  -2.47771
   D12        0.32045  -0.00011   0.00000  -0.00244  -0.00245   0.31799
   D13       -1.70553  -0.00082   0.00000  -0.01119  -0.01120  -1.71673
   D14        2.47476   0.00052   0.00000   0.00300   0.00300   2.47775
   D15       -2.81366  -0.00040   0.00000   0.00262   0.00253  -2.81113
   D16       -0.40103  -0.00021   0.00000  -0.00944  -0.00939  -0.41042
   D17        2.62244  -0.00097   0.00000  -0.01864  -0.01869   2.60375
   D18        0.31059   0.00049   0.00000   0.00743   0.00744   0.31803
         Item               Value     Threshold  Converged?
 Maximum Force            0.006027     0.000450     NO 
 RMS     Force            0.002217     0.000300     NO 
 Maximum Displacement     0.032874     0.001800     NO 
 RMS     Displacement     0.012680     0.001200     NO 
 Predicted change in Energy=-3.774783D-04
 GradGradGradGradGradGradGradGradGradGradGradGradGradGradGradGradGradGrad

                          Input orientation:                          
 ---------------------------------------------------------------------
 Center     Atomic     Atomic              Coordinates (Angstroms)
 Number     Number      Type              X           Y           Z
 ---------------------------------------------------------------------
    1          8             0       -0.117439    1.819763    0.012814
    2          8             0       -1.819324   -0.002624    0.062435
    3          8             0        2.044007   -0.002367    0.056151
    4          8             0       -0.117397   -1.814501   -0.137875
    5          1             0       -0.145715    2.632626    0.536674
    6          1             0        0.768969    1.421372    0.122336
    7          1             0        2.580303    0.031129   -0.751661
    8          1             0       -0.145645   -2.667820    0.317125
    9          1             0        0.768972   -1.426419    0.004224
   10          1             0       -2.425238    0.028857   -0.697149
   11          1             0       -1.192400   -0.839187   -0.006475
   12          1             0       -1.192524    0.836799    0.063032
   13          1             0        2.695241   -0.032154    0.773885
 ---------------------------------------------------------------------
                    Distance matrix (angstroms):
                    1          2          3          4          5
     1  O    0.000000
     2  O    2.493987   0.000000
     3  O    2.827346   3.863336   0.000000
     4  O    3.637387   2.493908   2.827214   0.000000
     5  H    0.967457   3.157596   3.459620   4.498084   0.000000
     6  H    0.977972   2.954761   1.912364   3.365149   1.573359
     7  H    3.325876   4.474440   0.970204   3.325758   3.982307
     8  H    4.497978   3.157426   3.459382   0.967459   5.304991
     9  H    3.365040   2.954632   1.912154   0.977982   4.194758
    10  H    3.006215   0.972157   4.532393   3.006141   3.673984
    11  H    2.868088   1.047673   3.343428   1.457441   3.666612
    12  H    1.457583   1.047621   3.343558   2.868040   2.131933
    13  H    3.452535   4.570375   0.969606   3.452390   3.902352
                    6          7          8          9         10
     6  H    0.000000
     7  H    2.444909   0.000000
     8  H    4.194753   3.982138   0.000000
     9  H    2.850239   2.444735   1.573375   0.000000
    10  H    3.579610   5.005838   3.673875   3.579487   0.000000
    11  H    2.995611   3.942846   2.131739   2.047421   1.658439
    12  H    2.047607   3.942975   3.666452   2.995510   1.658381
    13  H    2.499556   1.531178   3.902050   2.499373   5.327942
                   11         12         13
    11  H    0.000000
    12  H    1.677426   0.000000
    13  H    4.046481   4.046617   0.000000
 Stoichiometry    H9O4(1+)
 Framework group  C1[X(H9O4)]
 Deg. of freedom    33
 Full point group                 C1
 Largest Abelian subgroup         C1      NOp   1
 Largest concise Abelian subgroup C1      NOp   1
                         Standard orientation:                         
 ---------------------------------------------------------------------
 Center     Atomic     Atomic              Coordinates (Angstroms)
 Number     Number      Type              X           Y           Z
 ---------------------------------------------------------------------
    1          8             0        0.158940    1.818711    0.066557
    2          8             0        1.857371   -0.000220   -0.097122
    3          8             0       -2.004820    0.000148   -0.003102
    4          8             0        0.158549   -1.818676    0.066583
    5          1             0        0.176167    2.652574   -0.423699
    6          1             0       -0.730136    1.425284   -0.039210
    7          1             0       -2.522618    0.000204    0.817374
    8          1             0        0.175584   -2.652417   -0.423888
    9          1             0       -0.730412   -1.424955   -0.039159
   10          1             0        2.480393   -0.000288    0.649158
   11          1             0        1.231305   -0.838859   -0.048695
   12          1             0        1.231590    0.838568   -0.048724
   13          1             0       -2.672200    0.000180   -0.706480
 ---------------------------------------------------------------------
 Rotational constants (GHZ):      3.9557969      3.4492966      1.8733809
 Standard basis: Aug-CC-pVDZ (5D, 7F)
 There are   173 symmetry adapted basis functions of A   symmetry.
 Integral buffers will be    131072 words long.
 Raffenetti 1 integral format.
 Two-electron integral symmetry is turned on.
   173 basis functions,   271 primitive gaussians,   181 cartesian basis functions
    20 alpha electrons       20 beta electrons
       nuclear repulsion energy       153.3817075916 Hartrees.
 NAtoms=   13 NActive=   13 NUniq=   13 SFac= 7.50D-01 NAtFMM=   80 NAOKFM=F Big=F
 One-electron integrals computed using PRISM.
 NBasis=   173 RedAO= T  NBF=   173
 NBsUse=   173 1.00D-06 NBFU=   173
 Initial guess read from the read-write file:
 Initial guess orbital symmetries:
       Occupied  (A) (A) (A) (A) (A) (A) (A) (A) (A) (A) (A) (A)
                 (A) (A) (A) (A) (A) (A) (A) (A)
       Virtual   (A) (A) (A) (A) (A) (A) (A) (A) (A) (A) (A) (A)
                 (A) (A) (A) (A) (A) (A) (A) (A) (A) (A) (A) (A)
                 (A) (A) (A) (A) (A) (A) (A) (A) (A) (A) (A) (A)
                 (A) (A) (A) (A) (A) (A) (A) (A) (A) (A) (A) (A)
                 (A) (A) (A) (A) (A) (A) (A) (A) (A) (A) (A) (A)
                 (A) (A) (A) (A) (A) (A) (A) (A) (A) (A) (A) (A)
                 (A) (A) (A) (A) (A) (A) (A) (A) (A) (A) (A) (A)
                 (A) (A) (A) (A) (A) (A) (A) (A) (A) (A) (A) (A)
                 (A) (A) (A) (A) (A) (A) (A) (A) (A) (A) (A) (A)
                 (A) (A) (A) (A) (A) (A) (A) (A) (A) (A) (A) (A)
                 (A) (A) (A) (A) (A) (A) (A) (A) (A) (A) (A) (A)
                 (A) (A) (A) (A) (A) (A) (A) (A) (A) (A) (A) (A)
                 (A) (A) (A) (A) (A) (A) (A) (A) (A)
 Harris functional with IExCor=  205 diagonalized for initial guess.
 ExpMin= 2.97D-02 ExpMax= 1.17D+04 ExpMxC= 4.01D+02 IAcc=3 IRadAn=         5 AccDes= 0.00D+00
 HarFok:  IExCor= 205 AccDes= 0.00D+00 IRadAn=         5 IDoV=1
 ScaDFX=  1.000000  1.000000  1.000000  1.000000
 Requested convergence on RMS density matrix=1.00D-08 within 128 cycles.
 Requested convergence on MAX density matrix=1.00D-06.
 Requested convergence on             energy=1.00D-06.
 No special actions if energy rises.
 SCF Done:  E(RHF) =  -304.538620548     A.U. after    9 cycles
             Convg  =    0.3730D-08             -V/T =  2.0017
             S**2   =   0.0000
 ExpMin= 2.97D-02 ExpMax= 1.17D+04 ExpMxC= 4.01D+02 IAcc=3 IRadAn=         5 AccDes= 0.00D+00
 HarFok:  IExCor= 205 AccDes= 0.00D+00 IRadAn=         5 IDoV=1
 ScaDFX=  1.000000  1.000000  1.000000  1.000000
 Range of M.O.s used for correlation:     5   173
 NBasis=   173 NAE=    20 NBE=    20 NFC=     4 NFV=     0
 NROrb=    169 NOA=    16 NOB=    16 NVA=   153 NVB=   153

 **** Warning!!: The largest alpha MO coefficient is  0.10718574D+02

 Fully direct method using O(ONN) memory.
 JobTyp=1 Pass  1:  I=   5 to  20 NPSUse=  2 ParTrn=T ParDer=T DoDerP=T.
 Spin components of T(2) and E(2):
     alpha-alpha T2 =       0.3094371324D-01 E2=     -0.1149363860D+00
     alpha-beta  T2 =       0.1717583627D+00 E2=     -0.6622887591D+00
     beta-beta   T2 =       0.3094371324D-01 E2=     -0.1149363860D+00
 ANorm=    0.1110696083D+01
 E2 =    -0.8921615311D+00 EUMP2 =    -0.30543078207859D+03
 DoAtom=TTTTTTTTTTTTT
          Differentiating once with respect to electric field.
                with respect to dipole field.
          Differentiating once with respect to nuclear coordinates.
          There are   1 degrees of freedom in the 1st order CPHF.
 Petite list used in FoFDir.
 MinBra= 0 MaxBra= 2 Meth= 1.
 IRaf=       0 NMat=   1 IRICut=       1 DoRegI=T DoRafI=F ISym2E= 1 JSym2E=1.
     1 vectors were produced by pass  0.
 AX will form   1 AO Fock derivatives at one time.
     1 vectors were produced by pass  1.
     1 vectors were produced by pass  2.
     1 vectors were produced by pass  3.
     1 vectors were produced by pass  4.
     1 vectors were produced by pass  5.
     1 vectors were produced by pass  6.
     1 vectors were produced by pass  7.
     1 vectors were produced by pass  8.
     1 vectors were produced by pass  9.
     1 vectors were produced by pass 10.
     1 vectors were produced by pass 11.
 Inv2:  IOpt= 1 Iter= 1 AM= 3.07D-16 Conv= 1.00D-12.
 Inverted reduced A of dimension   12 with in-core refinement.
 End of Minotr Frequency-dependent properties file   721 does not exist.
 ***** Axes restored to original set *****
 -------------------------------------------------------------------
 Center     Atomic                   Forces (Hartrees/Bohr)
 Number     Number              X              Y              Z
 -------------------------------------------------------------------
    1          8          -0.000878456   -0.000076855    0.000122747
    2          8          -0.000220950   -0.000014028    0.000303336
    3          8          -0.000420271    0.000016689   -0.000385674
    4          8          -0.000877784    0.000067085    0.000129235
    5          1           0.000487668    0.000380883    0.000025964
    6          1          -0.000108140    0.000116314    0.000304120
    7          1           0.000682914   -0.000004492    0.000103806
    8          1           0.000488426   -0.000381820   -0.000006066
    9          1          -0.000107617   -0.000143191    0.000293685
   10          1          -0.000013563    0.000001525   -0.000038387
   11          1           0.000237636    0.001281950   -0.000361003
   12          1           0.000241273   -0.001245104   -0.000465670
   13          1           0.000488865    0.000001045   -0.000026091
 -------------------------------------------------------------------
 Cartesian Forces:  Max     0.001281950 RMS     0.000436451

 GradGradGradGradGradGradGradGradGradGradGradGradGradGradGradGradGradGrad
 Berny optimization.
 Internal  Forces:  Max     0.000692273 RMS     0.000300645
 Search for a local minimum.
 Step number   2 out of a maximum of  60
 All quantities printed in internal units (Hartrees-Bohrs-Radians)
 Update second derivatives using D2CorX and points  1  2
 Trust test= 1.06D+00 RLast= 6.63D-02 DXMaxT set to 3.00D-01
     Eigenvalues ---    0.00238   0.00258   0.00273   0.00736   0.00884
     Eigenvalues ---    0.02905   0.03651   0.05125   0.05334   0.05517
     Eigenvalues ---    0.08016   0.09302   0.10075   0.11628   0.12142
     Eigenvalues ---    0.12472   0.12491   0.13174   0.14136   0.15669
     Eigenvalues ---    0.19581   0.19849   0.20928   0.24916   0.36855
     Eigenvalues ---    0.38740   0.49511   0.50994   0.52081   0.52579
     Eigenvalues ---    0.52818   0.53064   0.558681000.000001000.00000
     Eigenvalues --- 1000.000001000.000001000.000001000.000001000.00000
     Eigenvalues --- 1000.000001000.000001000.000001000.000001000.00000
     Eigenvalues --- 1000.000001000.000001000.000001000.000001000.00000
 RFO step:  Lambda=-3.06522021D-05.
 Quartic linear search produced a step of  0.06165.
 Iteration  1 RMS(Cart)=  0.00606405 RMS(Int)=  0.00002887
 Iteration  2 RMS(Cart)=  0.00002231 RMS(Int)=  0.00000564
 Iteration  3 RMS(Cart)=  0.00000000 RMS(Int)=  0.00000564
 Variable       Old X    -DE/DX   Delta X   Delta X   Delta X     New X
                                 (Linear)    (Quad)   (Total)
    R1        1.82823   0.00032  -0.00048   0.00081   0.00033   1.82856
    R2        1.84810   0.00025  -0.00063   0.00070   0.00007   1.84817
    R3        2.75443   0.00011  -0.00085   0.00164   0.00078   2.75522
    R4        1.83711   0.00004  -0.00052   0.00026  -0.00026   1.83685
    R5        1.97982  -0.00068  -0.00093  -0.00138  -0.00231   1.97750
    R6        1.97972  -0.00067  -0.00093  -0.00137  -0.00230   1.97741
    R7        3.61384   0.00033  -0.00024   0.00626   0.00602   3.61987
    R8        1.83342   0.00029  -0.00046   0.00075   0.00029   1.83371
    R9        3.61345   0.00033  -0.00024   0.00626   0.00602   3.61947
   R10        1.83229   0.00031  -0.00047   0.00079   0.00032   1.83261
   R11        1.82823   0.00032  -0.00048   0.00081   0.00033   1.82856
   R12        1.84812   0.00025  -0.00063   0.00070   0.00007   1.84819
   R13        2.75416   0.00011  -0.00085   0.00165   0.00080   2.75497
    A1        1.88401  -0.00034  -0.00124  -0.00094  -0.00218   1.88183
    A2        2.12516   0.00049   0.00034   0.00496   0.00530   2.13046
    A3        1.97137   0.00002   0.00001   0.00155   0.00155   1.97292
    A4        1.92562   0.00017  -0.00037   0.00005  -0.00033   1.92529
    A5        1.92560   0.00017  -0.00037   0.00005  -0.00033   1.92527
    A6        1.85649  -0.00069  -0.00028  -0.00380  -0.00409   1.85240
    A7        1.95159   0.00033   0.00048   0.00317   0.00365   1.95524
    A8        1.68183  -0.00045  -0.00030  -0.00341  -0.00371   1.67812
    A9        2.03204   0.00016   0.00032   0.00054   0.00086   2.03290
   A10        1.95162   0.00033   0.00048   0.00317   0.00365   1.95527
   A11        1.81948  -0.00045  -0.00111  -0.00330  -0.00441   1.81507
   A12        2.03206   0.00016   0.00032   0.00054   0.00086   2.03292
   A13        1.88402  -0.00034  -0.00124  -0.00094  -0.00219   1.88184
   A14        2.12505   0.00049   0.00034   0.00497   0.00531   2.13035
   A15        1.97127   0.00003   0.00001   0.00156   0.00156   1.97282
   A16        2.69916   0.00004  -0.00011   0.00016   0.00004   2.69920
   A17        2.69940   0.00004  -0.00011   0.00016   0.00003   2.69943
   A18        2.94975   0.00053   0.00027   0.00277   0.00304   2.95279
   A19        2.94966   0.00054   0.00027   0.00278   0.00304   2.95270
    D1        2.81136   0.00031  -0.00016   0.00562   0.00546   2.81683
    D2        0.41040  -0.00009   0.00058  -0.00206  -0.00148   0.40892
    D3       -2.60404   0.00008   0.00115   0.00370   0.00485  -2.59919
    D4       -0.31810   0.00010  -0.00046   0.00949   0.00903  -0.30906
    D5        1.97243  -0.00011  -0.00025  -0.00186  -0.00211   1.97033
    D6       -0.11615  -0.00001   0.00057   0.00032   0.00088  -0.11527
    D7       -1.97245   0.00011   0.00025   0.00185   0.00211  -1.97034
    D8        0.11615   0.00001  -0.00057  -0.00032  -0.00088   0.11527
    D9        1.71681   0.00018   0.00069  -0.00475  -0.00406   1.71275
   D10       -0.31794  -0.00006   0.00015  -0.00763  -0.00748  -0.32542
   D11       -2.47771  -0.00004  -0.00019  -0.00624  -0.00643  -2.48414
   D12        0.31799   0.00006  -0.00015   0.00763   0.00747   0.32546
   D13       -1.71673  -0.00018  -0.00069   0.00474   0.00405  -1.71268
   D14        2.47775   0.00004   0.00018   0.00624   0.00642   2.48417
   D15       -2.81113  -0.00031   0.00016  -0.00563  -0.00547  -2.81661
   D16       -0.41042   0.00009  -0.00058   0.00207   0.00149  -0.40893
   D17        2.60375  -0.00008  -0.00115  -0.00369  -0.00484   2.59891
   D18        0.31803  -0.00010   0.00046  -0.00948  -0.00903   0.30900
         Item               Value     Threshold  Converged?
 Maximum Force            0.000692     0.000450     NO 
 RMS     Force            0.000301     0.000300     NO 
 Maximum Displacement     0.018706     0.001800     NO 
 RMS     Displacement     0.006071     0.001200     NO 
 Predicted change in Energy=-1.675896D-05
 GradGradGradGradGradGradGradGradGradGradGradGradGradGradGradGradGradGrad

                          Input orientation:                          
 ---------------------------------------------------------------------
 Center     Atomic     Atomic              Coordinates (Angstroms)
 Number     Number      Type              X           Y           Z
 ---------------------------------------------------------------------
    1          8             0       -0.119752    1.818587    0.018560
    2          8             0       -1.822742   -0.002417    0.057511
    3          8             0        2.047158   -0.002218    0.052558
    4          8             0       -0.119708   -1.813804   -0.132046
    5          1             0       -0.145800    2.631202    0.543242
    6          1             0        0.767405    1.421217    0.126042
    7          1             0        2.582755    0.031303   -0.755899
    8          1             0       -0.145726   -2.666950    0.323783
    9          1             0        0.767412   -1.426576    0.007934
   10          1             0       -2.422133    0.029269   -0.707048
   11          1             0       -1.194651   -0.836871   -0.007669
   12          1             0       -1.194770    0.834596    0.061646
   13          1             0        2.702363   -0.031863    0.766903
 ---------------------------------------------------------------------
                    Distance matrix (angstroms):
                    1          2          3          4          5
     1  O    0.000000
     2  O    2.493541   0.000000
     3  O    2.830545   3.869902   0.000000
     4  O    3.635512   2.493467   2.830411   0.000000
     5  H    0.967632   3.159749   3.461898   4.496084   0.000000
     6  H    0.978010   2.956398   1.915551   3.364363   1.572279
     7  H    3.331323   4.480086   0.970356   3.331204   3.986509
     8  H    4.495984   3.159591   3.461661   0.967634   5.302695
     9  H    3.364262   2.956279   1.915342   0.978019   4.193575
    10  H    3.004850   0.972020   4.533492   3.004781   3.676271
    11  H    2.864883   1.046451   3.348074   1.457865   3.664849
    12  H    1.457998   1.046402   3.348199   2.864839   2.135431
    13  H    3.456662   4.580466   0.969774   3.456516   3.905633
                    6          7          8          9         10
     6  H    0.000000
     7  H    2.450546   0.000000
     8  H    4.193569   3.986338   0.000000
     9  H    2.850241   2.450372   1.572294   0.000000
    10  H    3.578367   5.005127   3.676172   3.578251   0.000000
    11  H    2.994413   3.947452   2.135250   2.048826   1.657118
    12  H    2.049001   3.947576   3.664701   2.994319   1.657064
    13  H    2.503239   1.528797   3.905336   2.503056   5.332609
                   11         12         13
    11  H    0.000000
    12  H    1.672904   0.000000
    13  H    4.053975   4.054107   0.000000
 Stoichiometry    H9O4(1+)
 Framework group  C1[X(H9O4)]
 Deg. of freedom    33
 Full point group                 C1
 Largest Abelian subgroup         C1      NOp   1
 Largest concise Abelian subgroup C1      NOp   1
                         Standard orientation:                         
 ---------------------------------------------------------------------
 Center     Atomic     Atomic              Coordinates (Angstroms)
 Number     Number      Type              X           Y           Z
 ---------------------------------------------------------------------
    1          8             0        0.160308    1.817773    0.061257
    2          8             0        1.860078   -0.000229   -0.091724
    3          8             0       -2.008711    0.000159    0.001098
    4          8             0        0.159894   -1.817739    0.061280
    5          1             0        0.175297    2.651421   -0.429781
    6          1             0       -0.729472    1.425286   -0.042418
    7          1             0       -2.525799    0.000218    0.822202
    8          1             0        0.174678   -2.651274   -0.429959
    9          1             0       -0.729768   -1.424955   -0.042366
   10          1             0        2.476689   -0.000300    0.659684
   11          1             0        1.232758   -0.836602   -0.046910
   12          1             0        1.233047    0.836302   -0.046936
   13          1             0       -2.679981    0.000196   -0.698801
 ---------------------------------------------------------------------
 Rotational constants (GHZ):      3.9603043      3.4386887      1.8710267
 Standard basis: Aug-CC-pVDZ (5D, 7F)
 There are   173 symmetry adapted basis functions of A   symmetry.
 Integral buffers will be    131072 words long.
 Raffenetti 1 integral format.
 Two-electron integral symmetry is turned on.
   173 basis functions,   271 primitive gaussians,   181 cartesian basis functions
    20 alpha electrons       20 beta electrons
       nuclear repulsion energy       153.3324720597 Hartrees.
 NAtoms=   13 NActive=   13 NUniq=   13 SFac= 7.50D-01 NAtFMM=   80 NAOKFM=F Big=F
 One-electron integrals computed using PRISM.
 NBasis=   173 RedAO= T  NBF=   173
 NBsUse=   173 1.00D-06 NBFU=   173
 Initial guess read from the read-write file:
 Initial guess orbital symmetries:
       Occupied  (A) (A) (A) (A) (A) (A) (A) (A) (A) (A) (A) (A)
                 (A) (A) (A) (A) (A) (A) (A) (A)
       Virtual   (A) (A) (A) (A) (A) (A) (A) (A) (A) (A) (A) (A)
                 (A) (A) (A) (A) (A) (A) (A) (A) (A) (A) (A) (A)
                 (A) (A) (A) (A) (A) (A) (A) (A) (A) (A) (A) (A)
                 (A) (A) (A) (A) (A) (A) (A) (A) (A) (A) (A) (A)
                 (A) (A) (A) (A) (A) (A) (A) (A) (A) (A) (A) (A)
                 (A) (A) (A) (A) (A) (A) (A) (A) (A) (A) (A) (A)
                 (A) (A) (A) (A) (A) (A) (A) (A) (A) (A) (A) (A)
                 (A) (A) (A) (A) (A) (A) (A) (A) (A) (A) (A) (A)
                 (A) (A) (A) (A) (A) (A) (A) (A) (A) (A) (A) (A)
                 (A) (A) (A) (A) (A) (A) (A) (A) (A) (A) (A) (A)
                 (A) (A) (A) (A) (A) (A) (A) (A) (A) (A) (A) (A)
                 (A) (A) (A) (A) (A) (A) (A) (A) (A) (A) (A) (A)
                 (A) (A) (A) (A) (A) (A) (A) (A) (A)
 Requested convergence on RMS density matrix=1.00D-08 within 128 cycles.
 Requested convergence on MAX density matrix=1.00D-06.
 Requested convergence on             energy=1.00D-06.
 No special actions if energy rises.
 SCF Done:  E(RHF) =  -304.538723344     A.U. after    8 cycles
             Convg  =    0.4089D-08             -V/T =  2.0017
             S**2   =   0.0000
 ExpMin= 2.97D-02 ExpMax= 1.17D+04 ExpMxC= 4.01D+02 IAcc=3 IRadAn=         5 AccDes= 0.00D+00
 HarFok:  IExCor= 205 AccDes= 0.00D+00 IRadAn=         5 IDoV=1
 ScaDFX=  1.000000  1.000000  1.000000  1.000000
 Range of M.O.s used for correlation:     5   173
 NBasis=   173 NAE=    20 NBE=    20 NFC=     4 NFV=     0
 NROrb=    169 NOA=    16 NOB=    16 NVA=   153 NVB=   153

 **** Warning!!: The largest alpha MO coefficient is  0.10703107D+02

 Fully direct method using O(ONN) memory.
 JobTyp=1 Pass  1:  I=   5 to  20 NPSUse=  2 ParTrn=T ParDer=T DoDerP=T.
 Spin components of T(2) and E(2):
     alpha-alpha T2 =       0.3093729556D-01 E2=     -0.1149190482D+00
     alpha-beta  T2 =       0.1717383845D+00 E2=     -0.6622472743D+00
     beta-beta   T2 =       0.3093729556D-01 E2=     -0.1149190482D+00
 ANorm=    0.1110681311D+01
 E2 =    -0.8920853707D+00 EUMP2 =    -0.30543080871440D+03
 DoAtom=TTTTTTTTTTTTT
          Differentiating once with respect to electric field.
                with respect to dipole field.
          Differentiating once with respect to nuclear coordinates.
          There are   1 degrees of freedom in the 1st order CPHF.
 Petite list used in FoFDir.
 MinBra= 0 MaxBra= 2 Meth= 1.
 IRaf=       0 NMat=   1 IRICut=       1 DoRegI=T DoRafI=F ISym2E= 1 JSym2E=1.
     1 vectors were produced by pass  0.
 AX will form   1 AO Fock derivatives at one time.
     1 vectors were produced by pass  1.
     1 vectors were produced by pass  2.
     1 vectors were produced by pass  3.
     1 vectors were produced by pass  4.
     1 vectors were produced by pass  5.
     1 vectors were produced by pass  6.
     1 vectors were produced by pass  7.
     1 vectors were produced by pass  8.
     1 vectors were produced by pass  9.
     1 vectors were produced by pass 10.
     1 vectors were produced by pass 11.
 Inv2:  IOpt= 1 Iter= 1 AM= 3.12D-16 Conv= 1.00D-12.
 Inverted reduced A of dimension   12 with in-core refinement.
 End of Minotr Frequency-dependent properties file   721 does not exist.
 ***** Axes restored to original set *****
 -------------------------------------------------------------------
 Center     Atomic                   Forces (Hartrees/Bohr)
 Number     Number              X              Y              Z
 -------------------------------------------------------------------
    1          8          -0.000389317    0.000099109    0.000260464
    2          8          -0.000366601   -0.000016390    0.000363013
    3          8           0.000130298    0.000016086   -0.000370648
    4          8          -0.000388650   -0.000119735    0.000251845
    5          1           0.000265024    0.000235950   -0.000070116
    6          1          -0.000162232    0.000045484    0.000160419
    7          1           0.000311422    0.000002187   -0.000056549
    8          1           0.000265630   -0.000229426   -0.000089822
    9          1          -0.000161722   -0.000060581    0.000156339
   10          1          -0.000128868    0.000006501   -0.000159674
   11          1           0.000226003    0.000627520   -0.000284357
   12          1           0.000229499   -0.000599451   -0.000335132
   13          1           0.000169515   -0.000007254    0.000174218
 -------------------------------------------------------------------
 Cartesian Forces:  Max     0.000627520 RMS     0.000253240

 GradGradGradGradGradGradGradGradGradGradGradGradGradGradGradGradGradGrad
 Berny optimization.
 Internal  Forces:  Max     0.000455361 RMS     0.000174543
 Search for a local minimum.
 Step number   3 out of a maximum of  60
 All quantities printed in internal units (Hartrees-Bohrs-Radians)
 Update second derivatives using D2CorX and points  1  2  3
 Trust test= 1.59D+00 RLast= 2.76D-02 DXMaxT set to 3.00D-01
     Eigenvalues ---    0.00226   0.00258   0.00273   0.00736   0.00880
     Eigenvalues ---    0.02139   0.02869   0.04421   0.05233   0.05335
     Eigenvalues ---    0.07803   0.09565   0.10054   0.11612   0.11795
     Eigenvalues ---    0.12114   0.12471   0.13275   0.14151   0.15453
     Eigenvalues ---    0.18907   0.19579   0.20917   0.24919   0.38737
     Eigenvalues ---    0.39559   0.49507   0.50981   0.52361   0.52583
     Eigenvalues ---    0.53064   0.53092   0.552451000.000001000.00000
     Eigenvalues --- 1000.000001000.000001000.000001000.000001000.00000
     Eigenvalues --- 1000.000001000.000001000.000001000.000001000.00000
     Eigenvalues --- 1000.000001000.000001000.000001000.000001000.00000
 RFO step:  Lambda=-1.39663812D-05.
 Quartic linear search produced a step of  1.46387.
 Iteration  1 RMS(Cart)=  0.01078083 RMS(Int)=  0.00011670
 Iteration  2 RMS(Cart)=  0.00008380 RMS(Int)=  0.00003162
 Iteration  3 RMS(Cart)=  0.00000001 RMS(Int)=  0.00003162
 Variable       Old X    -DE/DX   Delta X   Delta X   Delta X     New X
                                 (Linear)    (Quad)   (Total)
    R1        1.82856   0.00015   0.00048  -0.00019   0.00029   1.82885
    R2        1.84817   0.00016   0.00010  -0.00011  -0.00001   1.84817
    R3        2.75522   0.00019   0.00115   0.00241   0.00356   2.75878
    R4        1.83685   0.00021  -0.00038   0.00061   0.00023   1.83708
    R5        1.97750  -0.00012  -0.00338   0.00073  -0.00266   1.97485
    R6        1.97741  -0.00012  -0.00337   0.00074  -0.00264   1.97477
    R7        3.61987   0.00029   0.00882   0.00633   0.01514   3.63501
    R8        1.83371   0.00022   0.00042   0.00018   0.00060   1.83430
    R9        3.61947   0.00029   0.00882   0.00633   0.01515   3.63462
   R10        1.83261   0.00024   0.00046   0.00024   0.00071   1.83331
   R11        1.82856   0.00015   0.00048  -0.00019   0.00029   1.82886
   R12        1.84819   0.00016   0.00010  -0.00011  -0.00001   1.84818
   R13        2.75497   0.00019   0.00117   0.00243   0.00360   2.75857
    A1        1.88183  -0.00014  -0.00320   0.00149  -0.00177   1.88006
    A2        2.13046   0.00031   0.00775   0.00362   0.01134   2.14180
    A3        1.97292   0.00000   0.00227   0.00148   0.00366   1.97658
    A4        1.92529   0.00012  -0.00048  -0.00001  -0.00050   1.92479
    A5        1.92527   0.00012  -0.00048  -0.00001  -0.00050   1.92477
    A6        1.85240  -0.00046  -0.00599  -0.00203  -0.00806   1.84434
    A7        1.95524   0.00017   0.00534   0.00142   0.00677   1.96202
    A8        1.67812  -0.00027  -0.00544  -0.00264  -0.00811   1.67001
    A9        2.03290   0.00003   0.00126  -0.00129  -0.00003   2.03287
   A10        1.95527   0.00017   0.00534   0.00141   0.00677   1.96204
   A11        1.81507  -0.00011  -0.00646   0.00227  -0.00419   1.81087
   A12        2.03292   0.00003   0.00126  -0.00129  -0.00003   2.03289
   A13        1.88184  -0.00014  -0.00320   0.00149  -0.00177   1.88007
   A14        2.13035   0.00031   0.00777   0.00363   0.01136   2.14172
   A15        1.97282   0.00000   0.00228   0.00149   0.00368   1.97650
   A16        2.69920   0.00009   0.00006   0.00054   0.00055   2.69975
   A17        2.69943   0.00009   0.00004   0.00053   0.00053   2.69996
   A18        2.95279   0.00030   0.00444   0.00083   0.00524   2.95803
   A19        2.95270   0.00030   0.00445   0.00084   0.00525   2.95796
    D1        2.81683   0.00024   0.00800   0.00669   0.01468   2.83151
    D2        0.40892  -0.00007  -0.00217  -0.00143  -0.00357   0.40534
    D3       -2.59919   0.00000   0.00711  -0.00152   0.00553  -2.59366
    D4       -0.30906   0.00012   0.01322   0.00672   0.02000  -0.28906
    D5        1.97033  -0.00007  -0.00309   0.00200  -0.00108   1.96925
    D6       -0.11527  -0.00001   0.00129   0.00322   0.00449  -0.11077
    D7       -1.97034   0.00007   0.00308  -0.00200   0.00108  -1.96926
    D8        0.11527   0.00001  -0.00129  -0.00322  -0.00449   0.11078
    D9        1.71275   0.00006  -0.00595  -0.00162  -0.00758   1.70516
   D10       -0.32542  -0.00006  -0.01095  -0.00233  -0.01326  -0.33868
   D11       -2.48414   0.00007  -0.00941   0.00160  -0.00781  -2.49195
   D12        0.32546   0.00006   0.01094   0.00233   0.01325   0.33871
   D13       -1.71268  -0.00006   0.00593   0.00162   0.00756  -1.70512
   D14        2.48417  -0.00007   0.00940  -0.00160   0.00779   2.49196
   D15       -2.81661  -0.00024  -0.00801  -0.00671  -0.01471  -2.83131
   D16       -0.40893   0.00007   0.00218   0.00143   0.00359  -0.40534
   D17        2.59891   0.00000  -0.00708   0.00154  -0.00549   2.59342
   D18        0.30900  -0.00012  -0.01322  -0.00672  -0.02000   0.28900
         Item               Value     Threshold  Converged?
 Maximum Force            0.000455     0.000450     NO 
 RMS     Force            0.000175     0.000300     YES
 Maximum Displacement     0.032863     0.001800     NO 
 RMS     Displacement     0.010817     0.001200     NO 
 Predicted change in Energy=-2.161429D-05
 GradGradGradGradGradGradGradGradGradGradGradGradGradGradGradGradGradGrad

                          Input orientation:                          
 ---------------------------------------------------------------------
 Center     Atomic     Atomic              Coordinates (Angstroms)
 Number     Number      Type              X           Y           Z
 ---------------------------------------------------------------------
    1          8             0       -0.123718    1.816937    0.030093
    2          8             0       -1.830766   -0.002069    0.049261
    3          8             0        2.055557   -0.001937    0.045792
    4          8             0       -0.123669   -1.813114   -0.120401
    5          1             0       -0.146101    2.631598    0.552051
    6          1             0        0.764882    1.421654    0.133238
    7          1             0        2.589348    0.031645   -0.764235
    8          1             0       -0.146018   -2.668091    0.332514
    9          1             0        0.764899   -1.427620    0.015077
   10          1             0       -2.418491    0.029994   -0.724438
   11          1             0       -1.199879   -0.833140   -0.009244
   12          1             0       -1.199983    0.831022    0.059758
   13          1             0        2.715748   -0.031407    0.756049
 ---------------------------------------------------------------------
                    Distance matrix (angstroms):
                    1          2          3          4          5
     1  O    0.000000
     2  O    2.494627   0.000000
     3  O    2.838623   3.886324   0.000000
     4  O    3.633170   2.494564   2.838488   0.000000
     5  H    0.967788   3.166559   3.469741   4.495349   0.000000
     6  H    0.978007   2.961660   1.923563   3.364161   1.571388
     7  H    3.343493   4.494476   0.970672   3.343370   3.996879
     8  H    4.495267   3.166430   3.469512   0.967789   5.304234
     9  H    3.364077   2.961560   1.923360   0.978015   4.194701
    10  H    3.004741   0.972141   4.539975   3.004682   3.682597
    11  H    2.860520   1.045046   3.360325   1.459771   3.664684
    12  H    1.459882   1.045006   3.360439   2.860483   2.143617
    13  H    3.464961   4.601217   0.970148   3.464814   3.914511
                    6          7          8          9         10
     6  H    0.000000
     7  H    2.462977   0.000000
     8  H    4.194694   3.996706   0.000000
     9  H    2.851723   2.462802   1.571402   0.000000
    10  H    3.578574   5.007997   3.682518   3.578476   0.000000
    11  H    2.994107   3.959306   2.143471   2.052888   1.655753
    12  H    2.053032   3.959419   3.664564   2.994031   1.655708
    13  H    2.511008   1.526832   3.914228   2.510829   5.343784
                   11         12         13
    11  H    0.000000
    12  H    1.665592   0.000000
    13  H    4.069470   4.069589   0.000000
 Stoichiometry    H9O4(1+)
 Framework group  C1[X(H9O4)]
 Deg. of freedom    33
 Full point group                 C1
 Largest Abelian subgroup         C1      NOp   1
 Largest concise Abelian subgroup C1      NOp   1
                         Standard orientation:                         
 ---------------------------------------------------------------------
 Center     Atomic     Atomic              Coordinates (Angstroms)
 Number     Number      Type              X           Y           Z
 ---------------------------------------------------------------------
    1          8             0        0.162757    1.816599    0.051037
    2          8             0        1.867050   -0.000243   -0.081763
    3          8             0       -2.018214    0.000179    0.008981
    4          8             0        0.162304   -1.816571    0.051055
    5          1             0        0.174275    2.652178   -0.437111
    6          1             0       -0.728344    1.426026   -0.048406
    7          1             0       -2.533665    0.000241    0.831486
    8          1             0        0.173596   -2.652056   -0.437261
    9          1             0       -0.728678   -1.425696   -0.048356
   10          1             0        2.472016   -0.000320    0.679206
   11          1             0        1.236769   -0.832953   -0.043568
   12          1             0        1.237059    0.832638   -0.043588
   13          1             0       -2.694203    0.000226   -0.686882
 ---------------------------------------------------------------------
 Rotational constants (GHZ):      3.9652926      3.4122804      1.8639466
 Standard basis: Aug-CC-pVDZ (5D, 7F)
 There are   173 symmetry adapted basis functions of A   symmetry.
 Integral buffers will be    131072 words long.
 Raffenetti 1 integral format.
 Two-electron integral symmetry is turned on.
   173 basis functions,   271 primitive gaussians,   181 cartesian basis functions
    20 alpha electrons       20 beta electrons
       nuclear repulsion energy       153.1494764136 Hartrees.
 NAtoms=   13 NActive=   13 NUniq=   13 SFac= 7.50D-01 NAtFMM=   80 NAOKFM=F Big=F
 One-electron integrals computed using PRISM.
 NBasis=   173 RedAO= T  NBF=   173
 NBsUse=   173 1.00D-06 NBFU=   173
 Initial guess read from the read-write file:
 Initial guess orbital symmetries:
       Occupied  (A) (A) (A) (A) (A) (A) (A) (A) (A) (A) (A) (A)
                 (A) (A) (A) (A) (A) (A) (A) (A)
       Virtual   (A) (A) (A) (A) (A) (A) (A) (A) (A) (A) (A) (A)
                 (A) (A) (A) (A) (A) (A) (A) (A) (A) (A) (A) (A)
                 (A) (A) (A) (A) (A) (A) (A) (A) (A) (A) (A) (A)
                 (A) (A) (A) (A) (A) (A) (A) (A) (A) (A) (A) (A)
                 (A) (A) (A) (A) (A) (A) (A) (A) (A) (A) (A) (A)
                 (A) (A) (A) (A) (A) (A) (A) (A) (A) (A) (A) (A)
                 (A) (A) (A) (A) (A) (A) (A) (A) (A) (A) (A) (A)
                 (A) (A) (A) (A) (A) (A) (A) (A) (A) (A) (A) (A)
                 (A) (A) (A) (A) (A) (A) (A) (A) (A) (A) (A) (A)
                 (A) (A) (A) (A) (A) (A) (A) (A) (A) (A) (A) (A)
                 (A) (A) (A) (A) (A) (A) (A) (A) (A) (A) (A) (A)
                 (A) (A) (A) (A) (A) (A) (A) (A) (A) (A) (A) (A)
                 (A) (A) (A) (A) (A) (A) (A) (A) (A)
 Harris functional with IExCor=  205 diagonalized for initial guess.
 ExpMin= 2.97D-02 ExpMax= 1.17D+04 ExpMxC= 4.01D+02 IAcc=3 IRadAn=         5 AccDes= 0.00D+00
 HarFok:  IExCor= 205 AccDes= 0.00D+00 IRadAn=         5 IDoV=1
 ScaDFX=  1.000000  1.000000  1.000000  1.000000
 Requested convergence on RMS density matrix=1.00D-08 within 128 cycles.
 Requested convergence on MAX density matrix=1.00D-06.
 Requested convergence on             energy=1.00D-06.
 No special actions if energy rises.
 SCF Done:  E(RHF) =  -304.538890584     A.U. after    8 cycles
             Convg  =    0.7408D-08             -V/T =  2.0017
             S**2   =   0.0000
 ExpMin= 2.97D-02 ExpMax= 1.17D+04 ExpMxC= 4.01D+02 IAcc=3 IRadAn=         5 AccDes= 0.00D+00
 HarFok:  IExCor= 205 AccDes= 0.00D+00 IRadAn=         5 IDoV=1
 ScaDFX=  1.000000  1.000000  1.000000  1.000000
 Range of M.O.s used for correlation:     5   173
 NBasis=   173 NAE=    20 NBE=    20 NFC=     4 NFV=     0
 NROrb=    169 NOA=    16 NOB=    16 NVA=   153 NVB=   153

 **** Warning!!: The largest alpha MO coefficient is  0.10611515D+02

 Fully direct method using O(ONN) memory.
 JobTyp=1 Pass  1:  I=   5 to  20 NPSUse=  2 ParTrn=T ParDer=T DoDerP=T.
 Spin components of T(2) and E(2):
     alpha-alpha T2 =       0.3092831148D-01 E2=     -0.1148804188D+00
     alpha-beta  T2 =       0.1717344291D+00 E2=     -0.6621826001D+00
     beta-beta   T2 =       0.3092831148D-01 E2=     -0.1148804188D+00
 ANorm=    0.1110671442D+01
 E2 =    -0.8919434378D+00 EUMP2 =    -0.30543083402186D+03
 DoAtom=TTTTTTTTTTTTT
          Differentiating once with respect to electric field.
                with respect to dipole field.
          Differentiating once with respect to nuclear coordinates.
          There are   1 degrees of freedom in the 1st order CPHF.
 Petite list used in FoFDir.
 MinBra= 0 MaxBra= 2 Meth= 1.
 IRaf=       0 NMat=   1 IRICut=       1 DoRegI=T DoRafI=F ISym2E= 1 JSym2E=1.
     1 vectors were produced by pass  0.
 AX will form   1 AO Fock derivatives at one time.
     1 vectors were produced by pass  1.
     1 vectors were produced by pass  2.
     1 vectors were produced by pass  3.
     1 vectors were produced by pass  4.
     1 vectors were produced by pass  5.
     1 vectors were produced by pass  6.
     1 vectors were produced by pass  7.
     1 vectors were produced by pass  8.
     1 vectors were produced by pass  9.
     1 vectors were produced by pass 10.
     1 vectors were produced by pass 11.
 Inv2:  IOpt= 1 Iter= 1 AM= 2.65D-16 Conv= 1.00D-12.
 Inverted reduced A of dimension   12 with in-core refinement.
 End of Minotr Frequency-dependent properties file   721 does not exist.
 ***** Axes restored to original set *****
 -------------------------------------------------------------------
 Center     Atomic                   Forces (Hartrees/Bohr)
 Number     Number              X              Y              Z
 -------------------------------------------------------------------
    1          8           0.000212124    0.000065656    0.000286840
    2          8          -0.000049747   -0.000010408    0.000231809
    3          8           0.000707183    0.000012603   -0.000286187
    4          8           0.000212873   -0.000088556    0.000280637
    5          1          -0.000017500    0.000015089   -0.000128204
    6          1          -0.000213771    0.000018699   -0.000014594
    7          1          -0.000176007    0.000001203   -0.000031405
    8          1          -0.000017149   -0.000004514   -0.000129334
    9          1          -0.000213555   -0.000019211   -0.000015822
   10          1          -0.000091053    0.000005287   -0.000130627
   11          1          -0.000038567   -0.000238926   -0.000132293
   12          1          -0.000035807    0.000250607   -0.000112020
   13          1          -0.000279025   -0.000007528    0.000181200
 -------------------------------------------------------------------
 Cartesian Forces:  Max     0.000707183 RMS     0.000186003

 GradGradGradGradGradGradGradGradGradGradGradGradGradGradGradGradGradGrad
 Berny optimization.
 Internal  Forces:  Max     0.000268059 RMS     0.000098609
 Search for a local minimum.
 Step number   4 out of a maximum of  60
 All quantities printed in internal units (Hartrees-Bohrs-Radians)
 Update second derivatives using D2CorX and points  1  2  3  4
 Trust test= 1.17D+00 RLast= 5.51D-02 DXMaxT set to 3.00D-01
     Eigenvalues ---    0.00228   0.00258   0.00273   0.00735   0.00864
     Eigenvalues ---    0.01538   0.02769   0.04345   0.05276   0.05336
     Eigenvalues ---    0.07797   0.09997   0.10040   0.11572   0.12011
     Eigenvalues ---    0.12059   0.12470   0.13031   0.14198   0.15778
     Eigenvalues ---    0.19151   0.19576   0.21120   0.24921   0.38726
     Eigenvalues ---    0.38745   0.49500   0.51056   0.52174   0.52577
     Eigenvalues ---    0.52736   0.53064   0.556241000.000001000.00000
     Eigenvalues --- 1000.000001000.000001000.000001000.000001000.00000
     Eigenvalues --- 1000.000001000.000001000.000001000.000001000.00000
     Eigenvalues --- 1000.000001000.000001000.000001000.000001000.00000
 RFO step:  Lambda=-4.92208147D-06.
 Quartic linear search produced a step of  0.21707.
 Iteration  1 RMS(Cart)=  0.00265426 RMS(Int)=  0.00001253
 Iteration  2 RMS(Cart)=  0.00000651 RMS(Int)=  0.00000999
 Iteration  3 RMS(Cart)=  0.00000000 RMS(Int)=  0.00000999
 Variable       Old X    -DE/DX   Delta X   Delta X   Delta X     New X
                                 (Linear)    (Quad)   (Total)
    R1        1.82885  -0.00006   0.00006  -0.00010  -0.00003   1.82882
    R2        1.84817  -0.00007   0.00000  -0.00017  -0.00017   1.84800
    R3        2.75878   0.00010   0.00077   0.00073   0.00150   2.76028
    R4        1.83708   0.00016   0.00005   0.00025   0.00030   1.83738
    R5        1.97485   0.00027  -0.00058   0.00048  -0.00010   1.97475
    R6        1.97477   0.00027  -0.00057   0.00048  -0.00009   1.97468
    R7        3.63501   0.00014   0.00329   0.00306   0.00634   3.64135
    R8        1.83430  -0.00007   0.00013  -0.00016  -0.00004   1.83427
    R9        3.63462   0.00014   0.00329   0.00306   0.00635   3.64098
   R10        1.83331  -0.00006   0.00015  -0.00014   0.00001   1.83333
   R11        1.82886  -0.00006   0.00006  -0.00010  -0.00003   1.82882
   R12        1.84818  -0.00007   0.00000  -0.00017  -0.00017   1.84801
   R13        2.75857   0.00010   0.00078   0.00074   0.00152   2.76009
    A1        1.88006   0.00007  -0.00038   0.00125   0.00084   1.88090
    A2        2.14180   0.00003   0.00246   0.00149   0.00394   2.14573
    A3        1.97658   0.00001   0.00079   0.00082   0.00159   1.97817
    A4        1.92479  -0.00002  -0.00011  -0.00022  -0.00033   1.92446
    A5        1.92477  -0.00002  -0.00011  -0.00022  -0.00033   1.92444
    A6        1.84434   0.00008  -0.00175   0.00019  -0.00157   1.84277
    A7        1.96202   0.00000   0.00147   0.00061   0.00208   1.96410
    A8        1.67001  -0.00003  -0.00176  -0.00118  -0.00295   1.66706
    A9        2.03287  -0.00011  -0.00001  -0.00113  -0.00115   2.03173
   A10        1.96204   0.00000   0.00147   0.00060   0.00208   1.96411
   A11        1.81087   0.00021  -0.00091   0.00204   0.00113   1.81200
   A12        2.03289  -0.00011  -0.00001  -0.00113  -0.00115   2.03174
   A13        1.88007   0.00007  -0.00038   0.00125   0.00084   1.88091
   A14        2.14172   0.00003   0.00247   0.00150   0.00395   2.14566
   A15        1.97650   0.00001   0.00080   0.00082   0.00160   1.97809
   A16        2.69975   0.00009   0.00012   0.00030   0.00042   2.70017
   A17        2.69996   0.00009   0.00011   0.00030   0.00041   2.70036
   A18        2.95803  -0.00012   0.00114  -0.00049   0.00064   2.95867
   A19        2.95796  -0.00012   0.00114  -0.00049   0.00065   2.95860
    D1        2.83151   0.00011   0.00319   0.00387   0.00705   2.83856
    D2        0.40534  -0.00002  -0.00078  -0.00040  -0.00118   0.40416
    D3       -2.59366  -0.00006   0.00120  -0.00242  -0.00124  -2.59489
    D4       -0.28906   0.00010   0.00434   0.00241   0.00677  -0.28229
    D5        1.96925   0.00000  -0.00023   0.00289   0.00266   1.97190
    D6       -0.11077  -0.00002   0.00098   0.00316   0.00413  -0.10664
    D7       -1.96926   0.00000   0.00023  -0.00288  -0.00265  -1.97191
    D8        0.11078   0.00002  -0.00098  -0.00315  -0.00413   0.10665
    D9        1.70516  -0.00006  -0.00165   0.00129  -0.00035   1.70481
   D10       -0.33868  -0.00004  -0.00288   0.00103  -0.00185  -0.34053
   D11       -2.49195   0.00015  -0.00169   0.00368   0.00198  -2.48997
   D12        0.33871   0.00004   0.00288  -0.00103   0.00184   0.34055
[...]
 Vib (V=0)  6    0.141990D+01          0.152257          0.350585
 Vib (V=0)  7    0.130509D+01          0.115642          0.266276
 Vib (V=0)  8    0.128423D+01          0.108644          0.250161
 Vib (V=0)  9    0.121537D+01          0.084709          0.195049
 Vib (V=0) 10    0.115811D+01          0.063751          0.146791
 Vib (V=0) 11    0.112905D+01          0.052713          0.121376
 Vib (V=0) 12    0.112820D+01          0.052385          0.120621
 Vib (V=0) 13    0.108363D+01          0.034881          0.080317
 Vib (V=0) 14    0.107018D+01          0.029455          0.067824
 Vib (V=0) 15    0.106311D+01          0.026578          0.061199
 Electronic      0.100000D+01          0.000000          0.000000
 Translational   0.245407D+08          7.389886         17.015842
 Rotational      0.173338D+06          5.238895         12.063001
 ***** Axes restored to original set *****
 -------------------------------------------------------------------
 Center     Atomic                   Forces (Hartrees/Bohr)
 Number     Number              X              Y              Z
 -------------------------------------------------------------------
    1          8           0.000027032    0.000044223    0.000026871
    2          8          -0.000047623   -0.000001447    0.000029224
    3          8           0.000052022    0.000000288    0.000005259
    4          8           0.000027218   -0.000045858    0.000023018
    5          1          -0.000010735   -0.000007679   -0.000005157
    6          1          -0.000020134   -0.000033400   -0.000027267
    7          1          -0.000017566   -0.000000060    0.000000955
    8          1          -0.000010642    0.000008056   -0.000004561
    9          1          -0.000020150    0.000034483   -0.000024161
   10          1          -0.000001409    0.000000422   -0.000010783
   11          1           0.000022202    0.000016143   -0.000009292
   12          1           0.000022887   -0.000014871   -0.000010604
   13          1          -0.000023103   -0.000000300    0.000006499
 -------------------------------------------------------------------
 Cartesian Forces:  Max     0.000052022 RMS     0.000022750

 GradGradGradGradGradGradGradGradGradGradGradGradGradGradGradGradGradGrad
 Berny optimization.
 Internal  Forces:  Max     0.000025706 RMS     0.000010700
 Search for a local minimum.
 Step number   1 out of a maximum of   2
 All quantities printed in internal units (Hartrees-Bohrs-Radians)
 Second derivative matrix not updated -- analytic derivatives used.
     Eigenvalues ---    0.00029   0.00032   0.00040   0.00057   0.00238
     Eigenvalues ---    0.00289   0.00503   0.00679   0.00798   0.00992
     Eigenvalues ---    0.01229   0.01321   0.01513   0.01831   0.02491
     Eigenvalues ---    0.02660   0.03279   0.04036   0.04310   0.07514
     Eigenvalues ---    0.08265   0.08330   0.09192   0.09194   0.31314
     Eigenvalues ---    0.31694   0.47536   0.48926   0.51344   0.51544
     Eigenvalues ---    0.52791   0.53105   0.531781000.000001000.00000
     Eigenvalues --- 1000.000001000.000001000.000001000.000001000.00000
     Eigenvalues --- 1000.000001000.000001000.000001000.000001000.00000
     Eigenvalues --- 1000.000001000.000001000.000001000.000001000.00000
 Angle between quadratic step and forces=  75.79 degrees.
 Linear search not attempted -- first point.
 Iteration  1 RMS(Cart)=  0.00166281 RMS(Int)=  0.00000480
 Iteration  2 RMS(Cart)=  0.00000542 RMS(Int)=  0.00000134
 Iteration  3 RMS(Cart)=  0.00000000 RMS(Int)=  0.00000134
 Variable       Old X    -DE/DX   Delta X   Delta X   Delta X     New X
                                 (Linear)    (Quad)   (Total)
    R1        1.82851  -0.00001   0.00000  -0.00003  -0.00003   1.82848
    R2        1.84753  -0.00001   0.00000   0.00002   0.00002   1.84755
    R3        2.76076   0.00001   0.00000   0.00015   0.00015   2.76091
    R4        1.83740   0.00001   0.00000   0.00004   0.00004   1.83743
    R5        1.97455   0.00001   0.00000   0.00002   0.00002   1.97457
    R6        1.97452   0.00001   0.00000   0.00005   0.00005   1.97457
    R7        3.64364   0.00000   0.00000  -0.00133  -0.00133   3.64231
    R8        1.83387  -0.00001   0.00000  -0.00004  -0.00004   1.83383
    R9        3.64342   0.00000   0.00000  -0.00111  -0.00111   3.64231
   R10        1.83303  -0.00001   0.00000  -0.00004  -0.00004   1.83299
   R11        1.82851  -0.00001   0.00000  -0.00003  -0.00003   1.82848
   R12        1.84754  -0.00001   0.00000   0.00002   0.00002   1.84755
   R13        2.76068   0.00001   0.00000   0.00024   0.00024   2.76091
    A1        1.88204   0.00002   0.00000   0.00013   0.00013   1.88217
    A2        2.15103   0.00000   0.00000  -0.00007  -0.00007   2.15096
    A3        1.98321  -0.00002   0.00000  -0.00030  -0.00031   1.98291
    A4        1.92457   0.00000   0.00000  -0.00012  -0.00012   1.92445
    A5        1.92456   0.00000   0.00000  -0.00011  -0.00011   1.92445
    A6        1.84515  -0.00003   0.00000  -0.00069  -0.00069   1.84446
    A7        1.97087   0.00000   0.00000   0.00095   0.00096   1.97183
    A8        1.66273  -0.00002   0.00000  -0.00166  -0.00167   1.66106
    A9        2.02640   0.00000   0.00000  -0.00024  -0.00024   2.02616
   A10        1.97088   0.00000   0.00000   0.00095   0.00095   1.97183
   A11        1.81384   0.00001   0.00000   0.00027   0.00027   1.81411
   A12        2.02641   0.00000   0.00000  -0.00025  -0.00025   2.02616
   A13        1.88205   0.00002   0.00000   0.00013   0.00013   1.88217
   A14        2.15101   0.00000   0.00000  -0.00004  -0.00004   2.15096
   A15        1.98318  -0.00002   0.00000  -0.00027  -0.00027   1.98291
   A16        2.70182   0.00003   0.00000   0.00241   0.00240   2.70423
   A17        2.70193   0.00002   0.00000   0.00229   0.00229   2.70423
   A18        2.95384   0.00001   0.00000  -0.00018  -0.00019   2.95365
   A19        2.95382   0.00001   0.00000  -0.00017  -0.00017   2.95365
    D1        2.84844   0.00000   0.00000  -0.00416  -0.00416   2.84428
    D2        0.39984   0.00000   0.00000  -0.00388  -0.00389   0.39595
    D3       -2.60199   0.00000   0.00000   0.00222   0.00222  -2.59977
    D4       -0.27456   0.00000   0.00000   0.00197   0.00196  -0.27260
    D5        1.98231  -0.00001   0.00000   0.00081   0.00081   1.98312
    D6       -0.09782   0.00000   0.00000   0.00141   0.00141  -0.09640
    D7       -1.98233   0.00001   0.00000  -0.00080  -0.00080  -1.98312
    D8        0.09781   0.00000   0.00000  -0.00140  -0.00140   0.09640
    D9        1.71961  -0.00001   0.00000   0.00568   0.00568   1.72529
   D10       -0.33332   0.00000   0.00000   0.00517   0.00517  -0.32815
   D11       -2.47129   0.00001   0.00000   0.00663   0.00663  -2.46466
   D12        0.33333   0.00000   0.00000  -0.00518  -0.00518   0.32815
   D13       -1.71960   0.00001   0.00000  -0.00569  -0.00569  -1.72529
   D14        2.47129  -0.00001   0.00000  -0.00663  -0.00663   2.46465
   D15       -2.84837   0.00000   0.00000   0.00408   0.00408  -2.84428
   D16       -0.39983   0.00000   0.00000   0.00388   0.00388  -0.39595
   D17        2.60190   0.00000   0.00000  -0.00213  -0.00213   2.59977
   D18        0.27454   0.00000   0.00000  -0.00194  -0.00194   0.27260
         Item               Value     Threshold  Converged?
 Maximum Force            0.000026     0.000450     YES
 RMS     Force            0.000011     0.000300     YES
 Maximum Displacement     0.004772     0.001800     NO 
 RMS     Displacement     0.001667     0.001200     NO 
 Predicted change in Energy=-1.641072D-07
 GradGradGradGradGradGradGradGradGradGradGradGradGradGradGradGradGradGrad

 1\1\GINC-POLARIS-C18\Freq\RMP2-FC\Aug-CC-pVDZ\H9O4(1+)\G060005\14-Aug-
 2007\0\\#N Geom=AllCheck Guess=Read SCRF=Check GenChk RMP2(FC)/Aug-CC-
 pVDZ Freq\\Title Card Required\\1,1\O,-0.125043537,1.8134205099,0.0325
 757984\O,-1.8362787719,-0.0022350375,0.0537562374\O,2.0635181747,-0.00
 18012548,0.0432052473\O,-0.1250064092,-1.809838532,-0.1175985822\H,-0.
 1431616311,2.6377146634,0.5390057039\H,0.7645850112,1.420365471,0.1321
 064125\H,2.6060417249,0.0315181867,-0.7607306163\H,-0.1430897664,-2.67
 31780781,0.3189544196\H,0.7646033992,-1.426306503,0.0140973723\H,-2.42
 61235362,0.0297667234,-0.7185401409\H,-1.2059144073,-0.8333850081,-0.0
 063893792\H,-1.2059598857,0.8310560134,0.0625990586\H,2.7136396346,-0.
 0316241544,0.7624744688\\Version=AM64L-G03RevD.01\State=1-A\HF=-304.53
 90939\MP2=-305.4308436\RMSD=7.458e-10\RMSF=2.275e-05\ZeroPoint=0.10992
 03\Thermal=0.1193871\Dipole=0.435703,-0.0068961,0.1668967\DipoleDeriv=
 -0.809687,-0.1354717,0.0263666,-0.122375,-0.829512,0.0049206,0.0301169
 ,0.0264659,-0.4595817,-0.8912822,0.0022121,-0.0526741,0.0013002,-1.038
 537,-0.0318931,-0.0305778,-0.0318948,-0.2703796,-0.6107386,0.0002331,-
 0.0061392,-0.0001162,-0.7200456,-0.0103233,0.002114,-0.0103237,-0.4714
 116,-0.8097623,0.1328293,0.0374858,0.1194711,-0.8244155,-0.0352082,0.0
 401388,-0.0567569,-0.4646803,0.2504555,-0.0570987,-0.0292184,-0.028658
 9,0.3760575,-0.017375,-0.0191726,-0.0071066,0.3259047,0.5191833,-0.226
 3353,-0.0443973,-0.2417447,0.4184532,-0.0065808,-0.0451246,-0.0135395,
 0.2609502,0.2588406,0.000483,-0.0116798,0.0008436,0.3193411,-0.0001401
 ,-0.0203701,-0.0001404,0.3226803,0.2504518,0.0593158,-0.0243953,0.0301
 412,0.3737082,0.0213388,-0.0167345,0.0110701,0.3282599,0.5192653,0.229
 2794,-0.0255156,0.2447044,0.4157435,0.0194333,-0.0249647,0.0263943,0.2
 636771,0.4574853,-0.0019485,0.0471027,-0.0020611,0.2767611,-0.0027617,
 0.0498518,-0.0027627,0.343325,0.8037414,-0.6358409,0.0072634,-0.616309
 6,0.9610944,-0.0386675,-0.0229082,-0.0169363,0.2453659,0.8036502,0.633
 0046,0.0598435,0.6160272,0.9515992,0.0973085,0.0281626,0.0755819,0.254
 8564,0.2583967,-0.0006622,0.0159577,-0.0012223,0.3197519,-0.0000515,0.
 0294685,-0.0000511,0.3210336\Polar=38.2834162,-0.0378725,38.0015836,0.
 9135868,0.3718707,29.04315\PG=C01 [X(H9O4)]\NImag=0\\0.48966293,-0.146
 92210,0.53214551,0.05135438,0.22952496,0.17312558,-0.01980658,-0.03480
 325,-0.00536254,0.47976259,-0.04062018,-0.02698641,-0.00638360,-0.0101
 8149,0.46331905,-0.00541831,-0.00470273,0.00745202,0.24598713,0.003117
 52,0.38828956,-0.00609754,0.00722965,0.00097739,-0.00129025,0.00000180
 ,-0.00003189,0.46528064,0.00922260,-0.00193265,-0.00093147,0.00000350,
 0.00519618,0.00020449,-0.00067224,0.02993743,0.00075199,0.00010549,0.0
 0391880,-0.00009310,0.00020450,0.00027061,0.01617830,-0.02641101,0.665
 96817,0.00523636,0.00179432,0.00002225,-0.01981245,0.04093477,-0.00203
 884,-0.00610079,-0.00925599,-0.00001374,0.48963604,-0.00178985,-0.0020
 6867,-0.00009458,0.03513246,-0.02766656,0.00178684,-0.00728778,-0.0019
 6120,-0.00059390,0.14216676,0.56753035,-0.00012628,-0.00012528,0.00057
 923,-0.00246483,0.00346805,0.00813178,0.00037583,0.00044322,0.00394787
 ,0.06333181,-0.19680067,0.13776468,-0.05261786,-0.01209585,-0.01515915
 ,-0.00673226,-0.00602670,0.00062261,-0.00165786,0.00071971,-0.00058041
 ,0.00022576,-0.00024737,0.00001136,0.04659133,0.02785593,-0.37576684,-
 0.21817651,-0.00042228,0.00077769,0.00007941,-0.00012442,0.00064218,0.
 00031183,-0.00000936,0.00028845,0.00012657,-0.02024730,0.39122698,0.00
 911819,-0.23936886,-0.14519746,0.00309416,0.00245630,0.00083783,-0.000
 71937,0.00071918,0.00004040,-0.00002020,0.00018635,-0.00009020,-0.0024
 0025,0.23101840,0.14448376,-0.39849173,0.16933548,-0.03922347,0.001524
 45,0.00221400,0.00076193,-0.00011244,-0.00717524,-0.00031572,-0.002639
 30,0.00058070,0.00018605,0.00346327,-0.00750622,-0.00410623,0.40242557
 ,0.12948662,-0.11329865,-0.00670716,-0.00270263,-0.01017485,-0.0002785
 9,-0.00314673,-0.00079727,0.00010250,0.00264816,0.00039514,-0.00004507
 ,0.03381808,-0.01195563,0.00661749,-0.15600091,0.11644524,-0.06909450,
 0.00891144,-0.02394608,0.00001588,0.00000734,0.00001306,-0.00056590,0.
 00090947,-0.00863662,0.00029779,-0.00007449,-0.00059221,0.02266661,-0.
 01031455,0.00041560,0.04517694,0.00022282,0.03016303,0.00018727,0.0004
 9810,-0.00062227,0.00020839,0.00000529,-0.00012737,-0.19428949,-0.0100
 0131,0.24130107,0.00018711,-0.00044510,-0.00066149,-0.00005093,0.00020
 678,-0.00015665,-0.00104443,-0.00085409,0.00240116,0.18469476,0.000352
 22,-0.00127677,0.00102123,0.00001406,-0.00063800,-0.00002031,-0.007598
 13,-0.01077066,0.01443397,-0.00021251,-0.00111705,-0.00107503,0.000157
 31,-0.00003330,-0.00007696,0.00040076,0.00192104,-0.00311301,0.0087992
 1,0.00852337,-0.00167729,0.00085115,-0.00047109,-0.00033858,-0.0000202
 6,-0.00014868,0.18333600,0.01443498,-0.35844955,-0.00170120,-0.0009049
 9,-0.00063109,-0.00002629,-0.00011276,-0.00003045,0.00251192,-0.001743
 83,0.00055888,-0.21230609,-0.01564687,0.38539296,0.00022570,0.00024556
 ,0.00003178,-0.00673280,0.00595465,0.00111948,-0.00165825,-0.00066921,
 -0.00063824,-0.05261727,0.01332093,-0.01411394,0.00004607,-0.00002566,
 -0.00002078,-0.00009652,0.00004487,-0.00000475,-0.00005093,-0.00015458
 ,-0.00003921,0.04658883,0.00001101,0.00031169,-0.00009321,0.00016478,0
 .00098727,-0.00006706,0.00018351,0.00072311,-0.00025528,-0.02849852,-0
 .41188654,0.19605214,0.00002729,-0.00012684,0.00000985,0.00008748,-0.0
 0025310,0.00006601,-0.00019312,-0.00004888,0.00011123,0.02036020,0.427
 60770,-0.00001938,-0.00015300,-0.00011344,0.00311921,-0.00244439,0.000
 62816,-0.00070683,-0.00066264,-0.00004066,0.00677539,0.21724675,-0.109
 07816,-0.00001859,-0.00002631,0.00007137,-0.00002310,0.00019659,0.0000
 4236,-0.00017323,0.00007547,-0.00001483,-0.00070994,-0.20753179,0.1081
 0474,-0.00263939,-0.00059428,0.00013738,0.00152518,-0.00227008,0.00057
 619,-0.00011173,0.00717757,0.00027943,-0.39845678,-0.16551906,-0.05309
 030,-0.00009658,-0.00008530,-0.00003026,0.00352041,-0.00149279,-0.0003
 1198,-0.00104452,-0.00060711,0.00247078,0.00346563,0.00782010,-0.00347
 061,0.40238942,-0.00266371,0.00037854,0.00012570,0.00269278,-0.0101282
 8,-0.00056339,0.00318288,-0.00076922,0.00055135,-0.12333869,-0.1125210
 3,-0.00064380,-0.00004435,-0.00022943,-0.00021914,0.00151336,-0.003229
 81,-0.00018327,0.00065287,0.00151145,0.00182327,-0.03557408,-0.0121768
 4,-0.00766258,0.15173643,0.11590777,0.00007763,0.00015510,-0.00057560,
 0.00023940,-0.00084920,-0.00003439,-0.00030356,-0.00025591,-0.00866828
 ,-0.07956387,-0.01626387,-0.02474175,-0.00000845,-0.00008856,0.0000186
 6,-0.00018735,-0.00015307,0.00081963,0.00246421,0.00319262,0.00096893,
 0.01979291,0.00927092,0.00063575,0.05791933,0.00689257,0.03072078,0.00
 053158,-0.00028767,0.00052948,-0.18894165,0.00879814,-0.21233651,0.000
 37420,-0.00000495,0.00011988,0.00053147,0.00024308,0.00055162,0.000240
 99,-0.00042034,0.00035622,-0.00021627,0.00016904,-0.00002214,-0.000164
 58,-0.00000103,0.00002493,0.00024098,0.00038948,0.00038980,-0.00021632
 ,-0.00016666,-0.00003607,0.20794241,-0.00265181,-0.00458666,0.00111442
 ,0.01044410,-0.06188485,0.01077079,-0.00000787,-0.00007154,0.00000274,
 0.00247602,-0.00425189,-0.00145517,-0.00063387,-0.00006238,0.00019347,
 0.00006586,0.00005508,0.00014873,-0.00000162,0.00003674,-0.00000445,0.
 00061082,-0.00003695,-0.00019259,-0.00003921,0.00007564,-0.00016184,-0
 .01004240,0.04843136,0.00202103,0.00258072,-0.00014993,-0.25200686,0.0
 1076816,-0.32134263,0.00018989,0.00000277,-0.00013754,0.00223395,-0.00
 292160,-0.00048503,0.00025177,0.00011301,-0.00004762,-0.00031986,0.000
 08573,0.00023364,0.00003908,-0.00000446,0.00014412,0.00030336,-0.00011
 213,-0.00007305,-0.00032432,-0.00009888,0.00021312,0.24236160,-0.01126
 638,0.31987002,-0.01035282,-0.00342851,-0.00030924,-0.11992385,0.07761
 198,-0.01140130,0.00137498,0.00409552,0.00012640,-0.00639517,-0.019027
 49,0.00518729,-0.00039228,0.00019272,0.00005076,0.00162466,-0.00428238
 ,-0.00022297,-0.00010708,-0.00054342,0.00041799,0.01127555,0.00013016,
 -0.00503799,-0.00858658,-0.00308679,0.00136171,-0.01013135,0.00996708,
 0.00305999,0.11034151,0.00596163,0.00548374,0.00073551,0.08165825,-0.1
 6407409,-0.01590043,-0.00113658,-0.00519729,0.00000963,-0.02235112,-0.
 01068791,-0.00055678,0.00081518,-0.00019756,-0.00044342,-0.00344989,0.
 00234260,0.00028466,0.00010774,0.00060711,-0.00032083,-0.00265979,-0.0
 0471053,0.00087020,0.00066445,0.01678435,0.00101861,-0.00290973,0.0099
 5146,0.00335008,-0.05899498,0.17785594,-0.00017595,-0.00024711,-0.0006
 0653,0.00712285,-0.04430476,-0.04409210,-0.00002825,-0.00001392,-0.000
 50830,0.00970051,-0.00323775,-0.01377953,-0.00006651,-0.00002632,0.000
 01058,-0.00007840,-0.00014007,0.00061872,0.00020970,-0.00000232,0.0001
 6201,-0.00572501,0.00248889,-0.00047435,-0.00210868,0.00156134,-0.0006
 3514,-0.01606983,0.02619567,0.00208560,0.00498774,0.01541615,0.0567954
 7,-0.00639629,0.01853052,0.00674260,-0.11993068,-0.07641909,-0.0177873
 4,0.00137419,-0.00409135,-0.00021290,-0.01035334,0.00344220,-0.0000244
 4,0.01127499,0.00028721,-0.00503050,-0.00858426,0.00296290,0.00161204,
 -0.00010710,0.00050692,0.00046141,-0.00039223,-0.00019626,0.00003466,0
 .00162478,0.00428628,0.00013214,-0.01013151,-0.01018855,0.00222523,0.0
 3139956,0.00206482,0.00237927,0.11034898,0.02146883,-0.01102047,0.0007
 8632,-0.08198582,-0.16825024,0.00559091,0.00113406,-0.00516487,-0.0003
 9631,-0.00592713,0.00548244,-0.00023004,0.00312475,-0.00440408,-0.0011
 9631,-0.00048734,0.01687592,0.00043512,-0.00012474,0.00057742,0.000355
 21,-0.00080680,-0.00023490,0.00042314,0.00344507,0.00234288,-0.0001415
 2,0.00422909,0.01233339,-0.00249803,-0.00225306,-0.02862191,0.00232898
 ,0.05840011,0.17960216,0.01151436,0.00346693,-0.01344222,0.00033841,0.
 03399783,-0.03994795,0.00006582,-0.00037277,-0.00054008,-0.00066879,0.
 00075274,-0.00060513,-0.00548379,-0.00281458,-0.00078065,-0.00215621,-
 0.00010755,-0.00072879,0.00020007,0.00003679,0.00019169,-0.00013373,0.
 00000594,0.00004795,0.00020742,0.00028324,0.00061863,-0.01577375,-0.02
 534639,-0.00029732,0.00220051,-0.00472855,0.00027463,0.00985565,-0.005
 22010,0.05507844,0.00055836,0.00049803,0.00088141,0.00014991,-0.000003
 08,0.00007422,-0.25708564,0.01065138,-0.25690297,0.00055837,-0.0005694
 7,0.00083734,-0.00029464,0.00029824,-0.00013510,-0.00137341,-0.0006501
 3,-0.00194816,0.01158153,-0.00111370,0.02686563,-0.00029476,-0.0002861
 1,-0.00015939,-0.00137351,0.00080967,-0.00188804,-0.00005996,0.0000014
 4,-0.00003486,-0.00012712,0.00023002,-0.00014745,-0.00012710,-0.000217
 01,-0.00016598,0.24788795,0.00028881,-0.00138236,-0.00092162,-0.000014
 44,-0.00047690,-0.00001743,0.00824185,-0.00983419,0.01193447,-0.000426
 71,-0.00153553,0.00084186,0.00063312,-0.00015924,0.00010365,0.00042194
 ,0.00167430,0.00269973,0.00135000,0.00070753,0.00117814,-0.00064692,-0
 .00015519,-0.00013885,-0.00023580,0.00205397,-0.00261584,0.00000395,0.
 00001061,0.00000100,-0.00038082,0.00046410,-0.00001878,0.00041430,0.00
 048226,0.00004648,-0.00964928,0.00815063,0.00167413,-0.00099882,-0.000
 57327,0.00034887,-0.00001748,-0.00005726,-0.19876744,0.01193360,-0.297
 16481,0.00164493,0.00091916,-0.00042046,0.00019110,-0.00008962,0.00026
 818,-0.00222650,0.00195021,0.00103877,-0.03256818,0.00117886,-0.027672
 90,0.00013807,0.00005450,0.00026415,-0.00225438,-0.00186640,0.00065965
 ,-0.00009524,0.00000099,-0.00001337,-0.00042088,0.00026516,0.00014893,
 -0.00038783,-0.00023738,0.00013078,0.23272335,-0.01309279,0.32339160\\
 -0.00002703,-0.00004422,-0.00002687,0.00004762,0.00000145,-0.00002922,
 -0.00005202,-0.00000029,-0.00000526,-0.00002722,0.00004586,-0.00002302
 ,0.00001073,0.00000768,0.00000516,0.00002013,0.00003340,0.00002727,0.0
 0001757,0.00000006,-0.00000095,0.00001064,-0.00000806,0.00000456,0.000
 02015,-0.00003448,0.00002416,0.00000141,-0.00000042,0.00001078,-0.0000
 2220,-0.00001614,0.00000929,-0.00002289,0.00001487,0.00001060,0.000023
 10,0.00000030,-0.00000650\\\@


 MY GROUP MEETINGS AREN'T VERY STRUCTURED.
     -- PROF. M. S. GORDON, OCT. 5, 1984
 Job cpu time:  0 days  1 hours 30 minutes 54.8 seconds.
 File lengths (MBytes):  RWF=   4016 Int=      0 D2E=      0 Chk=      8 Scr=      1
 Normal termination of Gaussian 03 at Tue Aug 14 19:08:48 2007.
