 Entering Gaussian System, Link 0=g03
 Initial command:
 /lustre/lwork/chinh/g03-em64t/g03/l1.exe /lustre/lwork/chinh/tmp/NQC-pW-5-6.xyz.0.com/Gau-17808.inp -scrdir=/lustre/lwork/chinh/tmp/NQC-pW-5-6.xyz.0.com/
 Entering Link 1 = /lustre/lwork/chinh/g03-em64t/g03/l1.exe PID=     17810.
  
 Copyright (c) 1988,1990,1992,1993,1995,1998,2003,2004, Gaussian, Inc.
                  All Rights Reserved.
  
 This is the Gaussian(R) 03 program.  It is based on the
 the Gaussian(R) 98 system (copyright 1998, Gaussian, Inc.),
 the Gaussian(R) 94 system (copyright 1995, Gaussian, Inc.),
 the Gaussian 92(TM) system (copyright 1992, Gaussian, Inc.),
 the Gaussian 90(TM) system (copyright 1990, Gaussian, Inc.),
 the Gaussian 88(TM) system (copyright 1988, Gaussian, Inc.),
 the Gaussian 86(TM) system (copyright 1986, Carnegie Mellon
 University), and the Gaussian 82(TM) system (copyright 1983,
 Carnegie Mellon University). Gaussian is a federally registered
 trademark of Gaussian, Inc.
  
 This software contains proprietary and confidential information,
 including trade secrets, belonging to Gaussian, Inc.
  
 This software is provided under written license and may be
 used, copied, transmitted, or stored only in accord with that
 written license.
  
 The following legend is applicable only to US Government
 contracts under FAR:
  
                    RESTRICTED RIGHTS LEGEND
  
 Use, reproduction and disclosure by the US Government is
 subject to restrictions as set forth in subparagraphs (a)
 and (c) of the Commercial Computer Software - Restricted
 Rights clause in FAR 52.227-19.
  
 Gaussian, Inc.
 340 Quinnipiac St., Bldg. 40, Wallingford CT 06492
  
  
 ---------------------------------------------------------------
 Warning -- This program may not be used in any manner that
 competes with the business of Gaussian, Inc. or will provide
 assistance to any competitor of Gaussian, Inc.  The licensee
 of this program is prohibited from giving any competitor of
 Gaussian, Inc. access to this program.  By using this program,
 the user acknowledges that Gaussian, Inc. is engaged in the
 business of creating and licensing software in the field of
 computational chemistry and represents and warrants to the
 licensee that it is not a competitor of Gaussian, Inc. and that
 it will not use this program in any manner prohibited above.
 ---------------------------------------------------------------
  

 Cite this work as:
 Gaussian 03, Revision D.01,
 M. J. Frisch, G. W. Trucks, H. B. Schlegel, G. E. Scuseria, 
 M. A. Robb, J. R. Cheeseman, J. A. Montgomery, Jr., T. Vreven, 
 K. N. Kudin, J. C. Burant, J. M. Millam, S. S. Iyengar, J. Tomasi, 
 V. Barone, B. Mennucci, M. Cossi, G. Scalmani, N. Rega, 
 G. A. Petersson, H. Nakatsuji, M. Hada, M. Ehara, K. Toyota, 
 R. Fukuda, J. Hasegawa, M. Ishida, T. Nakajima, Y. Honda, O. Kitao, 
 H. Nakai, M. Klene, X. Li, J. E. Knox, H. P. Hratchian, J. B. Cross, 
 V. Bakken, C. Adamo, J. Jaramillo, R. Gomperts, R. E. Stratmann, 
 O. Yazyev, A. J. Austin, R. Cammi, C. Pomelli, J. W. Ochterski, 
 P. Y. Ayala, K. Morokuma, G. A. Voth, P. Salvador, J. J. Dannenberg, 
 V. G. Zakrzewski, S. Dapprich, A. D. Daniels, M. C. Strain, 
 O. Farkas, D. K. Malick, A. D. Rabuck, K. Raghavachari, 
 J. B. Foresman, J. V. Ortiz, Q. Cui, A. G. Baboul, S. Clifford, 
 J. Cioslowski, B. B. Stefanov, G. Liu, A. Liashenko, P. Piskorz, 
 I. Komaromi, R. L. Martin, D. J. Fox, T. Keith, M. A. Al-Laham, 
 C. Y. Peng, A. Nanayakkara, M. Challacombe, P. M. W. Gill, 
 B. Johnson, W. Chen, M. W. Wong, C. Gonzalez, and J. A. Pople, 
 Gaussian, Inc., Wallingford CT, 2004.
 
 ******************************************
 Gaussian 03:  AM64L-G03RevD.01 13-Oct-2005
                10-May-2010 
 ******************************************
 %chk=pW-5-6.xyz.0.chk
 %nproc=4
 Will use up to    4 processors via shared memory.
 %mem=2GB
 -----------------------------------------
 #opt=(maxcycles=200) freq mp2/aug-cc-pvDZ
 -----------------------------------------
 1/6=200,18=20,38=1/1,3;
 2/9=110,17=6,18=5,40=1/2;
 3/5=16,7=10,11=9,16=1,25=1,30=1/1,2,3;
 4//1;
 5/5=2,38=5/2;
 8/6=4,10=1/1;
 9/15=2,16=-3/6;
 10/5=1/2;
 6/7=2,8=2,9=2,10=2/1;
 7/12=2/1,2,3,16;
 1/6=200,18=20/3(3);
 2/9=110/2;
 6/7=2,8=2,9=2,10=2/1;
 99//99;
 2/9=110/2;
 3/5=16,7=10,11=9,16=1,25=1,30=1/1,2,3;
 4/5=5,16=3/1;
 5/5=2,38=5/2;
 8/6=4,10=1/1;
 9/15=2,16=-3/6;
 10/5=1/2;
 7/12=2/1,2,3,16;
 1/6=200,18=20/3(-8);
 2/9=110/2;
 6/7=2,8=2,9=2,10=2/1;
 99//99;
 -----
 Str 5
 -----
 Symbolic Z-matrix:
 Charge =  1 Multiplicity = 1
 O                    -1.05179   1.57184  -0.79758 
 O                     1.79982  -0.80386  -0.19493 
 O                    -0.38258  -0.14514   1.02258 
 O                    -1.89022  -2.026     2.0728 
 O                     1.50988   1.34886  -2.05167 
 H                    -1.58411   2.36485  -0.63695 
 H                    -0.2587    1.78561  -1.3516 
 H                     2.02999  -0.10923  -0.86197 
 H                     2.59437  -1.14163   0.24374 
 H                    -1.02428  -0.84104   1.31571 
 H                    -0.75658   0.53262   0.38355 
 H                    -2.29188  -1.81513   2.93621 
 H                    -2.52663  -2.54115   1.54344 
 H                     1.43951   1.02083  -2.97752 
 H                     2.13596   2.10696  -2.05169 
 H                     0.47877  -0.50086   0.64445 
 

 GradGradGradGradGradGradGradGradGradGradGradGradGradGradGradGradGradGrad
 Berny optimization.
 Initialization pass.
                           ----------------------------
                           !    Initial Parameters    !
                           ! (Angstroms and Degrees)  !
 --------------------------                            --------------------------
 ! Name  Definition              Value          Derivative Info.                !
 --------------------------------------------------------------------------------
 ! R1    R(1,6)                  0.9685         estimate D2E/DX2                !
 ! R2    R(1,7)                  0.9908         estimate D2E/DX2                !
 ! R3    R(1,11)                 1.6007         estimate D2E/DX2                !
 ! R4    R(2,8)                  0.9902         estimate D2E/DX2                !
 ! R5    R(2,9)                  0.9684         estimate D2E/DX2                !
 ! R6    R(2,16)                 1.5942         estimate D2E/DX2                !
 ! R7    R(3,10)                 0.991          estimate D2E/DX2                !
 ! R8    R(3,11)                 1.0038         estimate D2E/DX2                !
 ! R9    R(3,16)                 1.0057         estimate D2E/DX2                !
 ! R10   R(4,10)                 1.6514         estimate D2E/DX2                !
 ! R11   R(4,12)                 0.9753         estimate D2E/DX2                !
 ! R12   R(4,13)                 0.975          estimate D2E/DX2                !
 ! R13   R(5,7)                  1.9516         estimate D2E/DX2                !
 ! R14   R(5,8)                  1.9524         estimate D2E/DX2                !
 ! R15   R(5,14)                 0.9848         estimate D2E/DX2                !
 ! R16   R(5,15)                 0.9832         estimate D2E/DX2                !
 ! A1    A(6,1,7)              110.8571         estimate D2E/DX2                !
 ! A2    A(6,1,11)             120.7021         estimate D2E/DX2                !
 ! A3    A(7,1,11)             113.8952         estimate D2E/DX2                !
 ! A4    A(8,2,9)              111.0457         estimate D2E/DX2                !
 ! A5    A(8,2,16)             114.4551         estimate D2E/DX2                !
 ! A6    A(9,2,16)             120.5088         estimate D2E/DX2                !
 ! A7    A(10,3,11)            114.9106         estimate D2E/DX2                !
 ! A8    A(10,3,16)            114.673          estimate D2E/DX2                !
 ! A9    A(11,3,16)            108.5767         estimate D2E/DX2                !
 ! A10   A(10,4,12)            117.8167         estimate D2E/DX2                !
 ! A11   A(10,4,13)            118.1951         estimate D2E/DX2                !
 ! A12   A(12,4,13)            109.0304         estimate D2E/DX2                !
 ! A13   A(7,5,8)              100.9504         estimate D2E/DX2                !
 ! A14   A(7,5,14)             110.3067         estimate D2E/DX2                !
 ! A15   A(7,5,15)             113.8601         estimate D2E/DX2                !
 ! A16   A(8,5,14)             110.0701         estimate D2E/DX2                !
 ! A17   A(8,5,15)             113.9671         estimate D2E/DX2                !
 ! A18   A(14,5,15)            107.5974         estimate D2E/DX2                !
 ! A19   A(1,7,5)              151.3675         estimate D2E/DX2                !
 ! A20   A(2,8,5)              150.7484         estimate D2E/DX2                !
 ! A21   A(3,10,4)             168.2567         estimate D2E/DX2                !
 ! A22   A(1,11,3)             167.6427         estimate D2E/DX2                !
 ! A23   A(2,16,3)             167.1342         estimate D2E/DX2                !
 ! D1    D(6,1,7,5)            163.0396         estimate D2E/DX2                !
 ! D2    D(11,1,7,5)            23.0079         estimate D2E/DX2                !
 ! D3    D(6,1,11,3)          -146.4186         estimate D2E/DX2                !
 ! D4    D(7,1,11,3)           -10.6953         estimate D2E/DX2                !
 ! D5    D(9,2,8,5)           -165.6097         estimate D2E/DX2                !
 ! D6    D(16,2,8,5)           -25.0257         estimate D2E/DX2                !
 ! D7    D(8,2,16,3)            10.4228         estimate D2E/DX2                !
 ! D8    D(9,2,16,3)           146.9651         estimate D2E/DX2                !
 ! D9    D(11,3,10,4)         -155.9565         estimate D2E/DX2                !
 ! D10   D(16,3,10,4)           77.1822         estimate D2E/DX2                !
 ! D11   D(10,3,11,1)         -137.6008         estimate D2E/DX2                !
 ! D12   D(16,3,11,1)           -7.6868         estimate D2E/DX2                !
 ! D13   D(10,3,16,2)          138.6595         estimate D2E/DX2                !
 ! D14   D(11,3,16,2)            8.6145         estimate D2E/DX2                !
 ! D15   D(12,4,10,3)           63.5533         estimate D2E/DX2                !
 ! D16   D(13,4,10,3)         -161.9271         estimate D2E/DX2                !
 ! D17   D(8,5,7,1)            -14.5582         estimate D2E/DX2                !
 ! D18   D(14,5,7,1)           101.8201         estimate D2E/DX2                !
 ! D19   D(15,5,7,1)          -137.105          estimate D2E/DX2                !
 ! D20   D(7,5,8,2)             16.0503         estimate D2E/DX2                !
 ! D21   D(14,5,8,2)          -100.5027         estimate D2E/DX2                !
 ! D22   D(15,5,8,2)           138.5226         estimate D2E/DX2                !
 --------------------------------------------------------------------------------
 Trust Radius=3.00D-01 FncErr=1.00D-07 GrdErr=1.00D-07
 Number of steps in this run= 100 maximum allowed number of steps= 100.
 GradGradGradGradGradGradGradGradGradGradGradGradGradGradGradGradGradGrad

                          Input orientation:                          
 ---------------------------------------------------------------------
 Center     Atomic     Atomic              Coordinates (Angstroms)
 Number     Number      Type              X           Y           Z
 ---------------------------------------------------------------------
    1          8             0       -1.051790    1.571843   -0.797575
    2          8             0        1.799816   -0.803864   -0.194929
    3          8             0       -0.382577   -0.145139    1.022579
    4          8             0       -1.890223   -2.026000    2.072803
    5          8             0        1.509877    1.348857   -2.051673
    6          1             0       -1.584105    2.364847   -0.636948
    7          1             0       -0.258696    1.785612   -1.351604
    8          1             0        2.029986   -0.109227   -0.861973
    9          1             0        2.594372   -1.141631    0.243740
   10          1             0       -1.024276   -0.841040    1.315713
   11          1             0       -0.756582    0.532617    0.383548
   12          1             0       -2.291880   -1.815128    2.936209
   13          1             0       -2.526627   -2.541148    1.543436
   14          1             0        1.439505    1.020833   -2.977519
   15          1             0        2.135955    2.106962   -2.051691
   16          1             0        0.478770   -0.500862    0.644450
 ---------------------------------------------------------------------
                    Distance matrix (angstroms):
                    1          2          3          4          5
     1  O    0.000000
     2  O    3.760163   0.000000
     3  O    2.590142   2.584392   0.000000
     4  O    4.678302   4.500291   2.629374   0.000000
     5  O    2.860878   2.857581   3.906972   6.321522   0.000000
     6  H    0.968512   4.656934   3.240020   5.168752   3.550551
     7  H    0.990779   3.504391   3.062661   5.377437   1.951590
     8  H    3.511052   0.990174   3.061582   5.258799   1.952411
     9  H    4.662808   0.968419   3.234472   4.923330   3.556343
    10  H    3.207608   3.202955   0.990951   1.651418   4.749407
    11  H    1.600684   2.942106   1.003790   3.268830   3.425403
    12  H    5.191391   5.250587   3.177465   0.975329   7.024466
    13  H    4.957032   4.975759   3.257162   0.974995   6.659603
    14  H    3.355938   3.346962   4.547555   6.773185   0.984755
    15  H    3.467114   3.468928   4.567942   7.092456   0.983208
    16  H    2.952652   1.594218   1.005703   3.158855   3.428370
                    6          7          8          9         10
     6  H    0.000000
     7  H    1.613367   0.000000
     8  H    4.385582   3.011349   0.000000
     9  H    5.525456   4.387923   1.614618   0.000000
    10  H    3.795260   3.820994   3.821829   3.786039   0.000000
    11  H    2.254611   2.197416   3.119014   3.748539   1.681525
    12  H    5.544419   5.956887   6.001234   5.619470   2.276329
    13  H    5.450798   5.678522   5.697627   5.465573   2.280194
    14  H    4.053007   2.472322   2.470069   4.048022   5.288538
    15  H    3.988339   2.515501   2.517569   4.004061   5.478794
    16  H    3.756291   3.123468   2.197489   2.246536   1.680911
                   11         12         13         14         15
    11  H    0.000000
    12  H    3.792773   0.000000
    13  H    3.731814   1.588090   0.000000
    14  H    4.044493   7.545734   6.989775   0.000000
    15  H    4.095817   7.737419   7.501302   1.588042   0.000000
    16  H    1.631638   3.828310   3.742106   4.044407   4.100754
                   16
    16  H    0.000000
 Stoichiometry    H11O5(1+)
 Framework group  C1[X(H11O5)]
 Deg. of freedom    42
 Full point group                 C1
 Largest Abelian subgroup         C1      NOp   1
 Largest concise Abelian subgroup C1      NOp   1
                         Standard orientation:                         
 ---------------------------------------------------------------------
 Center     Atomic     Atomic              Coordinates (Angstroms)
 Number     Number      Type              X           Y           Z
 ---------------------------------------------------------------------
    1          8             0       -0.782995    1.888173    0.028684
    2          8             0       -0.655676   -1.869726    0.000346
    3          8             0        0.968599    0.066630   -0.539412
    4          8             0        3.457899   -0.068772    0.296445
    5          8             0       -2.863061   -0.067406    0.212153
    6          1             0       -0.809718    2.769791   -0.371380
    7          1             0       -1.685525    1.479657    0.042713
    8          1             0       -1.585652   -1.529842    0.008643
    9          1             0       -0.611401   -2.752049   -0.396370
   10          1             0        1.871162    0.094120   -0.131235
   11          1             0        0.388407    0.860199   -0.336386
   12          1             0        4.133126    0.258442   -0.326666
   13          1             0        3.717808    0.175335    1.203900
   14          1             0       -3.266174   -0.093333    1.110246
   15          1             0       -3.595874   -0.083109   -0.443161
   16          1             0        0.445707   -0.770405   -0.346031
 ---------------------------------------------------------------------
 Rotational constants (GHZ):      3.4879267      1.1762525      0.9124902
 Standard basis: Aug-CC-pVDZ (5D, 7F)
 There are   214 symmetry adapted basis functions of A   symmetry.
 Integral buffers will be    131072 words long.
 Raffenetti 1 integral format.
 Two-electron integral symmetry is turned on.
   214 basis functions,   336 primitive gaussians,   224 cartesian basis functions
    25 alpha electrons       25 beta electrons
       nuclear repulsion energy       211.1133068756 Hartrees.
 NAtoms=   16 NActive=   16 NUniq=   16 SFac= 7.50D-01 NAtFMM=   80 NAOKFM=F Big=F
 One-electron integrals computed using PRISM.
 NBasis=   214 RedAO= T  NBF=   214
 NBsUse=   214 1.00D-06 NBFU=   214
 Harris functional with IExCor=  205 diagonalized for initial guess.
 ExpMin= 2.97D-02 ExpMax= 1.17D+04 ExpMxC= 4.01D+02 IAcc=3 IRadAn=         5 AccDes= 0.00D+00
 HarFok:  IExCor= 205 AccDes= 0.00D+00 IRadAn=         5 IDoV=1
 ScaDFX=  1.000000  1.000000  1.000000  1.000000
 Initial guess orbital symmetries:
       Occupied  (A) (A) (A) (A) (A) (A) (A) (A) (A) (A) (A) (A)
                 (A) (A) (A) (A) (A) (A) (A) (A) (A) (A) (A) (A)
                 (A)
       Virtual   (A) (A) (A) (A) (A) (A) (A) (A) (A) (A) (A) (A)
                 (A) (A) (A) (A) (A) (A) (A) (A) (A) (A) (A) (A)
                 (A) (A) (A) (A) (A) (A) (A) (A) (A) (A) (A) (A)
                 (A) (A) (A) (A) (A) (A) (A) (A) (A) (A) (A) (A)
                 (A) (A) (A) (A) (A) (A) (A) (A) (A) (A) (A) (A)
                 (A) (A) (A) (A) (A) (A) (A) (A) (A) (A) (A) (A)
                 (A) (A) (A) (A) (A) (A) (A) (A) (A) (A) (A) (A)
                 (A) (A) (A) (A) (A) (A) (A) (A) (A) (A) (A) (A)
                 (A) (A) (A) (A) (A) (A) (A) (A) (A) (A) (A) (A)
                 (A) (A) (A) (A) (A) (A) (A) (A) (A) (A) (A) (A)
                 (A) (A) (A) (A) (A) (A) (A) (A) (A) (A) (A) (A)
                 (A) (A) (A) (A) (A) (A) (A) (A) (A) (A) (A) (A)
                 (A) (A) (A) (A) (A) (A) (A) (A) (A) (A) (A) (A)
                 (A) (A) (A) (A) (A) (A) (A) (A) (A) (A) (A) (A)
                 (A) (A) (A) (A) (A) (A) (A) (A) (A) (A) (A) (A)
                 (A) (A) (A) (A) (A) (A) (A) (A) (A)
 The electronic state of the initial guess is 1-A.
 Requested convergence on RMS density matrix=1.00D-08 within 128 cycles.
 Requested convergence on MAX density matrix=1.00D-06.
 Requested convergence on             energy=1.00D-06.
 No special actions if energy rises.
 SCF Done:  E(RHF) =  -380.602750104     A.U. after   11 cycles
             Convg  =    0.4260D-08             -V/T =  2.0021
             S**2   =   0.0000
 ExpMin= 2.97D-02 ExpMax= 1.17D+04 ExpMxC= 4.01D+02 IAcc=3 IRadAn=         5 AccDes= 0.00D+00
 HarFok:  IExCor= 205 AccDes= 0.00D+00 IRadAn=         5 IDoV=1
 ScaDFX=  1.000000  1.000000  1.000000  1.000000
 Range of M.O.s used for correlation:     6   214
 NBasis=   214 NAE=    25 NBE=    25 NFC=     5 NFV=     0
 NROrb=    209 NOA=    20 NOB=    20 NVA=   189 NVB=   189
 Fully direct method using O(ONN) memory.
 JobTyp=1 Pass  1:  I=   6 to  12 NPSUse=  4 ParTrn=T ParDer=T DoDerP=T.
 JobTyp=1 Pass  2:  I=  13 to  19 NPSUse=  4 ParTrn=T ParDer=T DoDerP=T.
 JobTyp=1 Pass  3:  I=  20 to  25 NPSUse=  4 ParTrn=T ParDer=T DoDerP=T.
 Spin components of T(2) and E(2):
     alpha-alpha T2 =       0.3887199520D-01 E2=     -0.1433234364D+00
     alpha-beta  T2 =       0.2161798160D+00 E2=     -0.8275189029D+00
     beta-beta   T2 =       0.3887199520D-01 E2=     -0.1433234364D+00
 ANorm=    0.1137507717D+01
 E2 =    -0.1114165776D+01 EUMP2 =    -0.38171691588012D+03
 DoAtom=TTTTTTTTTTTTTTTT
          Differentiating once with respect to electric field.
                with respect to dipole field.
          Differentiating once with respect to nuclear coordinates.
          There are   1 degrees of freedom in the 1st order CPHF.
 Petite list used in FoFDir.
 MinBra= 0 MaxBra= 2 Meth= 1.
 IRaf=       0 NMat=   1 IRICut=       1 DoRegI=T DoRafI=F ISym2E= 1 JSym2E=1.
     1 vectors were produced by pass  0.
 AX will form   1 AO Fock derivatives at one time.
     1 vectors were produced by pass  1.
     1 vectors were produced by pass  2.
     1 vectors were produced by pass  3.
     1 vectors were produced by pass  4.
     1 vectors were produced by pass  5.
     1 vectors were produced by pass  6.
     1 vectors were produced by pass  7.
     1 vectors were produced by pass  8.
     1 vectors were produced by pass  9.
     1 vectors were produced by pass 10.
     1 vectors were produced by pass 11.
     1 vectors were produced by pass 12.
 Inv2:  IOpt= 1 Iter= 1 AM= 3.67D-16 Conv= 1.00D-12.
 Inverted reduced A of dimension   13 with in-core refinement.
 End of Minotr Frequency-dependent properties file   721 does not exist.

 **********************************************************************

            Population analysis using the SCF density.

 **********************************************************************

 Orbital symmetries:
       Occupied  (A) (A) (A) (A) (A) (A) (A) (A) (A) (A) (A) (A)
                 (A) (A) (A) (A) (A) (A) (A) (A) (A) (A) (A) (A)
                 (A)
       Virtual   (A) (A) (A) (A) (A) (A) (A) (A) (A) (A) (A) (A)
                 (A) (A) (A) (A) (A) (A) (A) (A) (A) (A) (A) (A)
                 (A) (A) (A) (A) (A) (A) (A) (A) (A) (A) (A) (A)
                 (A) (A) (A) (A) (A) (A) (A) (A) (A) (A) (A) (A)
                 (A) (A) (A) (A) (A) (A) (A) (A) (A) (A) (A) (A)
                 (A) (A) (A) (A) (A) (A) (A) (A) (A) (A) (A) (A)
                 (A) (A) (A) (A) (A) (A) (A) (A) (A) (A) (A) (A)
                 (A) (A) (A) (A) (A) (A) (A) (A) (A) (A) (A) (A)
                 (A) (A) (A) (A) (A) (A) (A) (A) (A) (A) (A) (A)
                 (A) (A) (A) (A) (A) (A) (A) (A) (A) (A) (A) (A)
                 (A) (A) (A) (A) (A) (A) (A) (A) (A) (A) (A) (A)
                 (A) (A) (A) (A) (A) (A) (A) (A) (A) (A) (A) (A)
                 (A) (A) (A) (A) (A) (A) (A) (A) (A) (A) (A) (A)
                 (A) (A) (A) (A) (A) (A) (A) (A) (A) (A) (A) (A)
                 (A) (A) (A) (A) (A) (A) (A) (A) (A) (A) (A) (A)
                 (A) (A) (A) (A) (A) (A) (A) (A) (A)
 The electronic state is 1-A.
 Alpha  occ. eigenvalues --  -20.80520 -20.75903 -20.74733 -20.73858 -20.73729
 Alpha  occ. eigenvalues --   -1.61310  -1.52747  -1.51869  -1.51185  -1.50675
 Alpha  occ. eigenvalues --   -0.97352  -0.95422  -0.89266  -0.88778  -0.88743
 Alpha  occ. eigenvalues --   -0.88618  -0.79156  -0.76050  -0.74997  -0.74324
 Alpha  occ. eigenvalues --   -0.73252  -0.68719  -0.68313  -0.67507  -0.67285
 Alpha virt. eigenvalues --   -0.08593  -0.07039  -0.05790  -0.04909  -0.04366
 Alpha virt. eigenvalues --   -0.03603  -0.02657  -0.01762  -0.00640   0.00339
 Alpha virt. eigenvalues --    0.00683   0.05183   0.05764   0.06568   0.07126
 Alpha virt. eigenvalues --    0.08299   0.08838   0.09379   0.10253   0.10783
 Alpha virt. eigenvalues --    0.11788   0.11949   0.12599   0.12811   0.13193
 Alpha virt. eigenvalues --    0.13528   0.14056   0.15252   0.16716   0.17732
 Alpha virt. eigenvalues --    0.18059   0.19780   0.20099   0.20659   0.21839
 Alpha virt. eigenvalues --    0.23445   0.24850   0.25859   0.27550   0.28231
 Alpha virt. eigenvalues --    0.29982   0.31155   0.32090   0.32576   0.33773
 Alpha virt. eigenvalues --    0.34476   0.36144   0.37682   0.37978   0.39313
 Alpha virt. eigenvalues --    0.40105   0.40550   0.41761   0.43242   0.44364
 Alpha virt. eigenvalues --    0.44666   0.45020   0.45623   0.46342   0.47096
 Alpha virt. eigenvalues --    0.47934   0.49597   0.51788   0.53171   0.53773
 Alpha virt. eigenvalues --    0.54093   0.54416   0.56733   0.57180   0.58650
 Alpha virt. eigenvalues --    0.65693   0.67127   0.67979   0.70213   0.72481
 Alpha virt. eigenvalues --    0.73557   0.74542   0.77471   0.78293   0.82099
 Alpha virt. eigenvalues --    0.84549   0.84867   0.85205   0.87191   0.92795
 Alpha virt. eigenvalues --    0.95576   0.98464   1.00253   1.01248   1.03603
 Alpha virt. eigenvalues --    1.04815   1.07153   1.07918   1.11461   1.11800
 Alpha virt. eigenvalues --    1.13041   1.14611   1.14990   1.19880   1.20215
 Alpha virt. eigenvalues --    1.25762   1.26600   1.28530   1.28878   1.30195
 Alpha virt. eigenvalues --    1.32023   1.35564   1.38379   1.39958   1.42683
 Alpha virt. eigenvalues --    1.45703   1.47046   1.54113   1.56074   1.58195
 Alpha virt. eigenvalues --    1.65637   1.71477   1.79469   1.80080   1.82109
 Alpha virt. eigenvalues --    1.83832   1.85601   1.86637   1.88621   1.91217
 Alpha virt. eigenvalues --    1.92802   1.94771   1.96425   1.97350   1.99906
 Alpha virt. eigenvalues --    2.01766   2.02412   2.03211   2.09726   2.13458
 Alpha virt. eigenvalues --    2.24876   2.27973   2.28741   2.30197   2.31289
 Alpha virt. eigenvalues --    2.35434   2.36036   2.40020   2.41145   2.44768
 Alpha virt. eigenvalues --    2.50417   2.52040   2.52353   2.57859   2.60322
 Alpha virt. eigenvalues --    2.61581   2.64097   2.66687   2.71157   2.71838
 Alpha virt. eigenvalues --    2.74571   2.83684   2.85369   2.86660   2.91168
 Alpha virt. eigenvalues --    2.92880   2.94650   3.01755   3.06473   3.53142
 Alpha virt. eigenvalues --    3.54094   3.55008   3.56426   3.57272   3.58552
 Alpha virt. eigenvalues --    3.59013   3.61750   3.63577   3.64910   3.65700
 Alpha virt. eigenvalues --    3.68595   3.71878   3.76400   3.86821   3.92390
 Alpha virt. eigenvalues --    3.97345   4.04805   4.07184   4.10449   4.12149
 Alpha virt. eigenvalues --    4.15941   4.19607   4.24187   4.28812
          Condensed to atoms (all electrons):
              1          2          3          4          5          6
     1  O    7.940156  -0.007264  -0.069451   0.000283  -0.007106   0.368687
     2  O   -0.007264   7.937231  -0.066635   0.000880  -0.007510  -0.000251
     3  O   -0.069451  -0.066635   7.633228  -0.040142   0.000198  -0.000943
     4  O    0.000283   0.000880  -0.040142   7.880649   0.000024   0.000282
     5  O   -0.007106  -0.007510   0.000198   0.000024   8.065160  -0.002194
     6  H    0.368687  -0.000251  -0.000943   0.000282  -0.002194   0.485285
     7  H    0.341836  -0.000040  -0.002438  -0.000470  -0.021031  -0.060648
     8  H    0.000001   0.342669  -0.002205  -0.000364  -0.022487  -0.000160
     9  H   -0.000280   0.368782  -0.000624  -0.000041  -0.001998   0.000030
    10  H   -0.003038  -0.005647   0.275446  -0.046453  -0.000288   0.000003
    11  H   -0.039228  -0.001988   0.289668  -0.017314   0.001457  -0.002602
    12  H   -0.000111   0.000038  -0.000773   0.368525  -0.000005   0.000021
    13  H   -0.000282   0.000048   0.000155   0.361848   0.000015  -0.000004
    14  H   -0.002040  -0.001972  -0.000218  -0.000002   0.347739  -0.000277
    15  H   -0.000600  -0.000491   0.000386   0.000024   0.337755   0.000472
    16  H   -0.002629  -0.037495   0.288422   0.001406   0.001778  -0.000196
              7          8          9         10         11         12
     1  O    0.341836   0.000001  -0.000280  -0.003038  -0.039228  -0.000111
     2  O   -0.000040   0.342669   0.368782  -0.005647  -0.001988   0.000038
     3  O   -0.002438  -0.002205  -0.000624   0.275446   0.289668  -0.000773
     4  O   -0.000470  -0.000364  -0.000041  -0.046453  -0.017314   0.368525
     5  O   -0.021031  -0.022487  -0.001998  -0.000288   0.001457  -0.000005
     6  H   -0.060648  -0.000160   0.000030   0.000003  -0.002602   0.000021
     7  H    0.422589   0.001731  -0.000134   0.001738   0.000038  -0.000087
     8  H    0.001731   0.423933  -0.061350   0.001431  -0.001189  -0.000021
     9  H   -0.000134  -0.061350   0.483979   0.000080   0.000085  -0.000076
    10  H    0.001738   0.001431   0.000080   0.389584  -0.058588  -0.001063
    11  H    0.000038  -0.001189   0.000085  -0.058588   0.347188  -0.001244
    12  H   -0.000087  -0.000021  -0.000076  -0.001063  -0.001244   0.461148
    13  H   -0.000033  -0.000069  -0.000036  -0.000362  -0.000884  -0.042444
    14  H   -0.000175  -0.000004  -0.000283   0.000126  -0.000187  -0.000001
    15  H   -0.002429  -0.002431   0.000478  -0.000346   0.000721   0.000005
    16  H   -0.001707  -0.000471  -0.002896  -0.043016  -0.007959   0.001237
             13         14         15         16
     1  O   -0.000282  -0.002040  -0.000600  -0.002629
     2  O    0.000048  -0.001972  -0.000491  -0.037495
     3  O    0.000155  -0.000218   0.000386   0.288422
     4  O    0.361848  -0.000002   0.000024   0.001406
     5  O    0.000015   0.347739   0.337755   0.001778
     6  H   -0.000004  -0.000277   0.000472  -0.000196
     7  H   -0.000033  -0.000175  -0.002429  -0.001707
     8  H   -0.000069  -0.000004  -0.002431  -0.000471
     9  H   -0.000036  -0.000283   0.000478  -0.002896
    10  H   -0.000362   0.000126  -0.000346  -0.043016
    11  H   -0.000884  -0.000187   0.000721  -0.007959
    12  H   -0.042444  -0.000001   0.000005   0.001237
    13  H    0.461062   0.000000   0.000004   0.000249
    14  H    0.000000   0.419314  -0.052105  -0.000167
    15  H    0.000004  -0.052105   0.428696   0.000720
    16  H    0.000249  -0.000167   0.000720   0.325134
 Mulliken atomic charges:
              1
     1  O   -0.518936
     2  O   -0.520357
     3  O   -0.304074
     4  O   -0.509135
     5  O   -0.691508
     6  H    0.212492
     7  H    0.321261
     8  H    0.320986
     9  H    0.214283
    10  H    0.490394
    11  H    0.492025
    12  H    0.214852
    13  H    0.220734
    14  H    0.290252
    15  H    0.289141
    16  H    0.477588
 Sum of Mulliken charges=   1.00000
 Atomic charges with hydrogens summed into heavy atoms:
              1
     1  O    0.014817
     2  O    0.014912
     3  O    1.155934
     4  O   -0.073548
     5  O   -0.112115
     6  H    0.000000
     7  H    0.000000
     8  H    0.000000
     9  H    0.000000
    10  H    0.000000
    11  H    0.000000
    12  H    0.000000
    13  H    0.000000
    14  H    0.000000
    15  H    0.000000
    16  H    0.000000
 Sum of Mulliken charges=   1.00000
 Electronic spatial extent (au):  <R**2>=  1187.2422
 Charge=     1.0000 electrons
 Dipole moment (field-independent basis, Debye):
    X=    -0.9258    Y=     0.9161    Z=    -0.3473  Tot=     1.3479
 Quadrupole moment (field-independent basis, Debye-Ang):
   XX=    17.0240   YY=   -17.1161   ZZ=   -28.1584
   XY=     4.4284   XZ=     1.8386   YZ=     0.2668
 Traceless Quadrupole moment (field-independent basis, Debye-Ang):
   XX=    26.4408   YY=    -7.6993   ZZ=   -18.7415
   XY=     4.4284   XZ=     1.8386   YZ=     0.2668
 Octapole moment (field-independent basis, Debye-Ang**2):
  XXX=    18.6047  YYY=     0.4026  ZZZ=     7.1195  XYY=   -14.3690
  XXY=    16.0559  XXZ=    13.0330  XZZ=     1.5144  YZZ=     0.2723
  YYZ=   -15.2234  XYZ=     1.7940
 Hexadecapole moment (field-independent basis, Debye-Ang**3):
 XXXX=  -141.7850 YYYY=  -148.6374 ZZZZ=   -40.7528 XXXY=    77.7559
 XXXZ=    12.4617 YYYX=    -3.6924 YYYZ=     0.1514 ZZZX=     6.3224
 ZZZY=     0.5391 XXYY=  -198.6360 XXZZ=   -87.7551 YYZZ=   -61.3891
 XXYZ=     2.3614 YYXZ=     8.4210 ZZXY=     4.0240
 N-N= 2.111133068756D+02 E-N=-1.316350353754D+03  KE= 3.798044730228D+02
 ***** Axes restored to original set *****
 -------------------------------------------------------------------
 Center     Atomic                   Forces (Hartrees/Bohr)
 Number     Number              X              Y              Z
 -------------------------------------------------------------------
    1          8           0.007612088   -0.004094237   -0.000902782
    2          8          -0.005042446    0.006150650   -0.003234542
    3          8           0.003321054    0.007228401    0.005631324
    4          8           0.000325776    0.004538010   -0.004013102
    5          8           0.003369887    0.002395213   -0.006861094
    6          1           0.005295990    0.000739976   -0.004443344
    7          1          -0.012216158    0.000570936    0.008895288
    8          1           0.000164036   -0.009853313    0.011228047
    9          1           0.001128121    0.004295281   -0.005221153
   10          1          -0.006226126   -0.010225145    0.005094710
   11          1          -0.002173691    0.005100536   -0.007812007
   12          1          -0.000962715   -0.005418362   -0.008845657
   13          1           0.001675069    0.003602464    0.009861122
   14          1           0.005042248    0.009319442    0.012305864
   15          1          -0.008183454   -0.011517273   -0.006081009
   16          1           0.006870321   -0.002832578   -0.005601664
 -------------------------------------------------------------------
 Cartesian Forces:  Max     0.012305864 RMS     0.006393198

 GradGradGradGradGradGradGradGradGradGradGradGradGradGradGradGradGradGrad
 Berny optimization.
 Internal  Forces:  Max     0.015034362 RMS     0.004959423
 Search for a local minimum.
 Step number   1 out of a maximum of 100
 All quantities printed in internal units (Hartrees-Bohrs-Radians)
 Second derivative matrix not updated -- first step.
     Eigenvalues ---    0.00230   0.00244   0.00541   0.00589   0.00709
     Eigenvalues ---    0.01112   0.01148   0.02570   0.02986   0.03477
     Eigenvalues ---    0.04117   0.04969   0.05080   0.07694   0.08170
     Eigenvalues ---    0.09102   0.09416   0.09863   0.10621   0.12111
     Eigenvalues ---    0.13007   0.14103   0.14470   0.15403   0.16000
     Eigenvalues ---    0.16000   0.19041   0.19767   0.20687   0.24487
     Eigenvalues ---    0.25000   0.45784   0.46272   0.48447   0.49244
     Eigenvalues ---    0.49315   0.50472   0.50767   0.52303   0.52369
     Eigenvalues ---    0.53682   0.537011000.000001000.000001000.00000
     Eigenvalues --- 1000.000001000.000001000.000001000.000001000.00000
     Eigenvalues --- 1000.000001000.000001000.000001000.000001000.00000
     Eigenvalues --- 1000.000001000.000001000.000001000.000001000.00000
     Eigenvalues --- 1000.00000
 RFO step:  Lambda=-5.31523704D-03.
 Linear search not attempted -- first point.
 Iteration  1 RMS(Cart)=  0.03618841 RMS(Int)=  0.00108701
 Iteration  2 RMS(Cart)=  0.00091879 RMS(Int)=  0.00025944
 Iteration  3 RMS(Cart)=  0.00000089 RMS(Int)=  0.00025944
 Variable       Old X    -DE/DX   Delta X   Delta X   Delta X     New X
                                 (Linear)    (Quad)   (Total)
    R1        1.83022  -0.00304   0.00000  -0.00561  -0.00561   1.82461
    R2        1.87230  -0.01447   0.00000  -0.02960  -0.02961   1.84269
    R3        3.02485  -0.00405   0.00000  -0.03645  -0.03644   2.98842
    R4        1.87116  -0.01425   0.00000  -0.02914  -0.02914   1.84202
    R5        1.83005  -0.00294   0.00000  -0.00542  -0.00542   1.82463
    R6        3.01263  -0.00422   0.00000  -0.03787  -0.03786   2.97477
    R7        1.87263   0.00925   0.00000   0.01855   0.01855   1.89118
    R8        1.89689   0.00533   0.00000   0.01260   0.01261   1.90950
    R9        1.90050   0.00497   0.00000   0.01192   0.01194   1.91244
   R10        3.12073  -0.00387   0.00000  -0.04450  -0.04450   3.07623
   R11        1.84310  -0.00861   0.00000  -0.01629  -0.01629   1.82682
   R12        1.84247  -0.00835   0.00000  -0.01579  -0.01579   1.82669
   R13        3.68797  -0.00006   0.00000  -0.01301  -0.01302   3.67495
   R14        3.68952  -0.00002   0.00000  -0.01253  -0.01255   3.67698
   R15        1.86092  -0.01503   0.00000  -0.02948  -0.02948   1.83144
   R16        1.85799  -0.01409   0.00000  -0.02747  -0.02747   1.83052
    A1        1.93482  -0.00617   0.00000  -0.05367  -0.05380   1.88102
    A2        2.10665   0.00381   0.00000   0.01767   0.01700   2.12364
    A3        1.98785   0.00140   0.00000   0.00060   0.00046   1.98831
    A4        1.93811  -0.00617   0.00000  -0.05283  -0.05299   1.88512
    A5        1.99762   0.00132   0.00000   0.00037   0.00022   1.99783
    A6        2.10328   0.00386   0.00000   0.01791   0.01724   2.12052
    A7        2.00557   0.00061   0.00000  -0.01321  -0.01376   1.99181
    A8        2.00142  -0.00065   0.00000  -0.02250  -0.02296   1.97846
    A9        1.89502  -0.00160   0.00000  -0.01126  -0.01161   1.88341
   A10        2.05629   0.00353   0.00000   0.01525   0.01529   2.07158
   A11        2.06289   0.00493   0.00000   0.02375   0.02379   2.08668
   A12        1.90294  -0.00742   0.00000  -0.05304  -0.05299   1.84995
   A13        1.76192  -0.00036   0.00000  -0.00537  -0.00540   1.75652
   A14        1.92521   0.00131   0.00000   0.01516   0.01503   1.94024
   A15        1.98723   0.00186   0.00000   0.01552   0.01554   2.00278
   A16        1.92109   0.00130   0.00000   0.01506   0.01493   1.93601
   A17        1.98910   0.00184   0.00000   0.01535   0.01538   2.00448
   A18        1.87793  -0.00542   0.00000  -0.05049  -0.05043   1.82750
   A19        2.64186   0.00101   0.00000   0.00158   0.00158   2.64344
   A20        2.63106   0.00093   0.00000   0.00090   0.00092   2.63197
   A21        2.93663   0.00237   0.00000   0.00928   0.00928   2.94592
   A22        2.92592  -0.00173   0.00000   0.00084   0.00108   2.92699
   A23        2.91704  -0.00128   0.00000   0.00269   0.00292   2.91996
    D1        2.84558   0.00126   0.00000  -0.01406  -0.01328   2.83229
    D2        0.40156   0.00078   0.00000   0.01899   0.01871   0.42027
    D3       -2.55549   0.00304   0.00000   0.05872   0.05912  -2.49636
    D4       -0.18667  -0.00090   0.00000  -0.00989  -0.00990  -0.19657
    D5       -2.89043  -0.00115   0.00000   0.01472   0.01397  -2.87646
    D6       -0.43678  -0.00077   0.00000  -0.01882  -0.01854  -0.45532
    D7        0.18191   0.00111   0.00000   0.01366   0.01373   0.19564
    D8        2.56502  -0.00285   0.00000  -0.05427  -0.05465   2.51037
    D9       -2.72195  -0.00138   0.00000  -0.03695  -0.03658  -2.75853
   D10        1.34708   0.00096   0.00000   0.01223   0.01186   1.35894
   D11       -2.40159   0.00188   0.00000   0.04109   0.04107  -2.36052
   D12       -0.13416   0.00007   0.00000  -0.01082  -0.01049  -0.14465
   D13        2.42006  -0.00134   0.00000  -0.03892  -0.03874   2.38132
   D14        0.15035  -0.00022   0.00000   0.00775   0.00736   0.15771
   D15        1.10921   0.00086   0.00000   0.00835   0.00837   1.11759
   D16       -2.82616  -0.00104   0.00000  -0.03239  -0.03242  -2.85858
   D17       -0.25409   0.00075   0.00000  -0.00359  -0.00336  -0.25745
   D18        1.77710   0.00257   0.00000   0.01688   0.01701   1.79410
   D19       -2.39293  -0.00219   0.00000  -0.02659  -0.02661  -2.41954
   D20        0.28013  -0.00075   0.00000   0.00304   0.00281   0.28294
   D21       -1.75410  -0.00258   0.00000  -0.01749  -0.01761  -1.77172
   D22        2.41768   0.00220   0.00000   0.02616   0.02619   2.44386
         Item               Value     Threshold  Converged?
 Maximum Force            0.015034     0.000450     NO 
 RMS     Force            0.004959     0.000300     NO 
 Maximum Displacement     0.089290     0.001800     NO 
 RMS     Displacement     0.036404     0.001200     NO 
 Predicted change in Energy=-2.762008D-03
 GradGradGradGradGradGradGradGradGradGradGradGradGradGradGradGradGradGrad

                          Input orientation:                          
 ---------------------------------------------------------------------
 Center     Atomic     Atomic              Coordinates (Angstroms)
 Number     Number      Type              X           Y           Z
 ---------------------------------------------------------------------
    1          8             0       -1.049500    1.553693   -0.786705
    2          8             0        1.778732   -0.801458   -0.185859
    3          8             0       -0.368331   -0.118610    1.052826
    4          8             0       -1.872439   -2.021469    2.034844
    5          8             0        1.487334    1.323848   -2.042095
    6          1             0       -1.537306    2.374722   -0.644471
    7          1             0       -0.271090    1.761285   -1.336091
    8          1             0        2.004822   -0.121923   -0.847115
    9          1             0        2.597826   -1.094611    0.232995
   10          1             0       -1.013244   -0.831833    1.330207
   11          1             0       -0.748956    0.550412    0.398173
   12          1             0       -2.290869   -1.848461    2.888959
   13          1             0       -2.522267   -2.512821    1.514562
   14          1             0        1.429105    1.011950   -2.957843
   15          1             0        2.107766    2.067048   -2.074392
   16          1             0        0.489941   -0.484242    0.660569
 ---------------------------------------------------------------------
                    Distance matrix (angstroms):
                    1          2          3          4          5
     1  O    0.000000
     2  O    3.729162   0.000000
     3  O    2.577685   2.571090   0.000000
     4  O    4.628191   4.444210   2.616787   0.000000
     5  O    2.839782   2.836803   3.886221   6.253052   0.000000
     6  H    0.965543   4.614602   3.234814   5.159219   3.493729
     7  H    0.975111   3.477421   3.041443   5.313826   1.944698
     8  H    3.484283   0.974753   3.040007   5.191061   1.945772
     9  H    4.621287   0.965553   3.228435   4.908054   3.501168
    10  H    3.189572   3.177186   1.000770   1.627871   4.719351
    11  H    1.581403   2.925381   1.010463   3.248919   3.399134
    12  H    5.160054   5.206954   3.171738   0.966710   6.975218
    13  H    4.899123   4.931408   3.253442   0.966642   6.591414
    14  H    3.339283   3.330853   4.538106   6.710346   0.969157
    15  H    3.448188   3.450093   4.548367   7.031630   0.968672
    16  H    2.935585   1.574182   1.012020   3.135688   3.401232
                    6          7          8          9         10
     6  H    0.000000
     7  H    1.567784   0.000000
     8  H    4.338315   2.994219   0.000000
     9  H    5.468596   4.341526   1.569845   0.000000
    10  H    3.802103   3.792650   3.788591   3.783220   0.000000
    11  H    2.244261   2.168464   3.096138   3.732873   1.687939
    12  H    5.557721   5.912767   5.949130   5.614425   2.257336
    13  H    5.433198   5.609099   5.638124   5.465262   2.266464
    14  H    4.001054   2.466221   2.464202   3.998119   5.268014
    15  H    3.927581   2.509490   2.511653   3.944652   5.453027
    16  H    3.739858   3.099711   2.167776   2.235744   1.681903
                   11         12         13         14         15
    11  H    0.000000
    12  H    3.786304   0.000000
    13  H    3.711381   1.543984   0.000000
    14  H    4.027383   7.497016   6.931071   0.000000
    15  H    4.071194   7.701562   7.435926   1.534373   0.000000
    16  H    1.635307   3.815720   3.730661   4.026602   4.075101
                   16
    16  H    0.000000
 Stoichiometry    H11O5(1+)
 Framework group  C1[X(H11O5)]
 Deg. of freedom    42
 Full point group                 C1
 Largest Abelian subgroup         C1      NOp   1
 Largest concise Abelian subgroup C1      NOp   1
                         Standard orientation:                         
 ---------------------------------------------------------------------
 Center     Atomic     Atomic              Coordinates (Angstroms)
 Number     Number      Type              X           Y           Z
 ---------------------------------------------------------------------
    1          8             0       -0.773043    1.873069    0.030362
    2          8             0       -0.640883   -1.853632    0.000654
    3          8             0        0.963992    0.069171   -0.580473
    4          8             0        3.417411   -0.070383    0.318878
    5          8             0       -2.834960   -0.069698    0.226617
    6          1             0       -0.851192    2.739765   -0.387973
    7          1             0       -1.660956    1.470455    0.049154
    8          1             0       -1.557302   -1.521765    0.014202
    9          1             0       -0.645015   -2.724874   -0.415537
   10          1             0        1.866656    0.091717   -0.148929
   11          1             0        0.380513    0.863922   -0.359209
   12          1             0        4.115341    0.248236   -0.269258
   13          1             0        3.677117    0.198247    1.210387
   14          1             0       -3.246856   -0.096571    1.103477
   15          1             0       -3.577895   -0.087059   -0.394729
   16          1             0        0.439447   -0.770287   -0.369887
 ---------------------------------------------------------------------
 Rotational constants (GHZ):      3.5160880      1.1970268      0.9305005
 Standard basis: Aug-CC-pVDZ (5D, 7F)
 There are   214 symmetry adapted basis functions of A   symmetry.
 Integral buffers will be    131072 words long.
 Raffenetti 1 integral format.
 Two-electron integral symmetry is turned on.
   214 basis functions,   336 primitive gaussians,   224 cartesian basis functions
    25 alpha electrons       25 beta electrons
       nuclear repulsion energy       212.5962393537 Hartrees.
 NAtoms=   16 NActive=   16 NUniq=   16 SFac= 7.50D-01 NAtFMM=   80 NAOKFM=F Big=F
 One-electron integrals computed using PRISM.
 NBasis=   214 RedAO= T  NBF=   214
 NBsUse=   214 1.00D-06 NBFU=   214
 Initial guess read from the read-write file:
 Initial guess orbital symmetries:
       Occupied  (A) (A) (A) (A) (A) (A) (A) (A) (A) (A) (A) (A)
                 (A) (A) (A) (A) (A) (A) (A) (A) (A) (A) (A) (A)
                 (A)
       Virtual   (A) (A) (A) (A) (A) (A) (A) (A) (A) (A) (A) (A)
                 (A) (A) (A) (A) (A) (A) (A) (A) (A) (A) (A) (A)
                 (A) (A) (A) (A) (A) (A) (A) (A) (A) (A) (A) (A)
                 (A) (A) (A) (A) (A) (A) (A) (A) (A) (A) (A) (A)
                 (A) (A) (A) (A) (A) (A) (A) (A) (A) (A) (A) (A)
                 (A) (A) (A) (A) (A) (A) (A) (A) (A) (A) (A) (A)
                 (A) (A) (A) (A) (A) (A) (A) (A) (A) (A) (A) (A)
                 (A) (A) (A) (A) (A) (A) (A) (A) (A) (A) (A) (A)
                 (A) (A) (A) (A) (A) (A) (A) (A) (A) (A) (A) (A)
                 (A) (A) (A) (A) (A) (A) (A) (A) (A) (A) (A) (A)
                 (A) (A) (A) (A) (A) (A) (A) (A) (A) (A) (A) (A)
                 (A) (A) (A) (A) (A) (A) (A) (A) (A) (A) (A) (A)
                 (A) (A) (A) (A) (A) (A) (A) (A) (A) (A) (A) (A)
                 (A) (A) (A) (A) (A) (A) (A) (A) (A) (A) (A) (A)
                 (A) (A) (A) (A) (A) (A) (A) (A) (A) (A) (A) (A)
                 (A) (A) (A) (A) (A) (A) (A) (A) (A)
 Harris functional with IExCor=  205 diagonalized for initial guess.
 ExpMin= 2.97D-02 ExpMax= 1.17D+04 ExpMxC= 4.01D+02 IAcc=3 IRadAn=         5 AccDes= 0.00D+00
 HarFok:  IExCor= 205 AccDes= 0.00D+00 IRadAn=         5 IDoV=1
 ScaDFX=  1.000000  1.000000  1.000000  1.000000
 Requested convergence on RMS density matrix=1.00D-08 within 128 cycles.
 Requested convergence on MAX density matrix=1.00D-06.
 Requested convergence on             energy=1.00D-06.
 No special actions if energy rises.
 SCF Done:  E(RHF) =  -380.607757568     A.U. after    9 cycles
             Convg  =    0.9084D-08             -V/T =  2.0017
             S**2   =   0.0000
 ExpMin= 2.97D-02 ExpMax= 1.17D+04 ExpMxC= 4.01D+02 IAcc=3 IRadAn=         5 AccDes= 0.00D+00
 HarFok:  IExCor= 205 AccDes= 0.00D+00 IRadAn=         5 IDoV=1
 ScaDFX=  1.000000  1.000000  1.000000  1.000000
 Range of M.O.s used for correlation:     6   214
 NBasis=   214 NAE=    25 NBE=    25 NFC=     5 NFV=     0
 NROrb=    209 NOA=    20 NOB=    20 NVA=   189 NVB=   189
 Fully direct method using O(ONN) memory.
 JobTyp=1 Pass  1:  I=   6 to  12 NPSUse=  4 ParTrn=T ParDer=T DoDerP=T.
 JobTyp=1 Pass  2:  I=  13 to  19 NPSUse=  4 ParTrn=T ParDer=T DoDerP=T.
 JobTyp=1 Pass  3:  I=  20 to  25 NPSUse=  4 ParTrn=T ParDer=T DoDerP=T.
 Spin components of T(2) and E(2):
     alpha-alpha T2 =       0.3865361701D-01 E2=     -0.1431868018D+00
     alpha-beta  T2 =       0.2145932306D+00 E2=     -0.8259572071D+00
     beta-beta   T2 =       0.3865361701D-01 E2=     -0.1431868018D+00
 ANorm=    0.1136617994D+01
 E2 =    -0.1112330811D+01 EUMP2 =    -0.38172008837851D+03
 DoAtom=TTTTTTTTTTTTTTTT
          Differentiating once with respect to electric field.
                with respect to dipole field.
          Differentiating once with respect to nuclear coordinates.
          There are   1 degrees of freedom in the 1st order CPHF.
 Petite list used in FoFDir.
 MinBra= 0 MaxBra= 2 Meth= 1.
 IRaf=       0 NMat=   1 IRICut=       1 DoRegI=T DoRafI=F ISym2E= 1 JSym2E=1.
     1 vectors were produced by pass  0.
 AX will form   1 AO Fock derivatives at one time.
     1 vectors were produced by pass  1.
     1 vectors were produced by pass  2.
     1 vectors were produced by pass  3.
     1 vectors were produced by pass  4.
     1 vectors were produced by pass  5.
     1 vectors were produced by pass  6.
     1 vectors were produced by pass  7.
     1 vectors were produced by pass  8.
     1 vectors were produced by pass  9.
     1 vectors were produced by pass 10.
     1 vectors were produced by pass 11.
     1 vectors were produced by pass 12.
 Inv2:  IOpt= 1 Iter= 1 AM= 2.63D-16 Conv= 1.00D-12.
 Inverted reduced A of dimension   13 with in-core refinement.
 End of Minotr Frequency-dependent properties file   721 does not exist.
 ***** Axes restored to original set *****
 -------------------------------------------------------------------
 Center     Atomic                   Forces (Hartrees/Bohr)
 Number     Number              X              Y              Z
 -------------------------------------------------------------------
    1          8          -0.000990301   -0.003147254    0.003145446
    2          8          -0.003741767   -0.001128712    0.002687264
    3          8           0.000274389    0.002653961    0.003716379
    4          8           0.002861905    0.004358008   -0.004265554
    5          8          -0.000492217   -0.000286211    0.000767975
    6          1           0.000186904    0.001495367   -0.001125240
    7          1           0.000539731   -0.000246784    0.000847820
    8          1          -0.000387174    0.000585656    0.000615030
    9          1           0.001675468    0.000245109   -0.000853009
   10          1          -0.002200675   -0.004764079    0.002989943
   11          1          -0.000462594    0.002293402   -0.004507731
   12          1          -0.000943157   -0.000857976    0.000918812
   13          1          -0.001234200   -0.001421170    0.000958631
   14          1           0.000787970    0.000704151   -0.000906444
   15          1           0.000544761    0.000289636   -0.001342560
   16          1           0.003580959   -0.000773103   -0.003646762
 -------------------------------------------------------------------
 Cartesian Forces:  Max     0.004764079 RMS     0.002139012

 GradGradGradGradGradGradGradGradGradGradGradGradGradGradGradGradGradGrad
 Berny optimization.
 Internal  Forces:  Max     0.003057514 RMS     0.001162808
 Search for a local minimum.
 Step number   2 out of a maximum of 100
 All quantities printed in internal units (Hartrees-Bohrs-Radians)
 Update second derivatives using D2CorX and points  1  2
 Trust test= 1.15D+00 RLast= 1.99D-01 DXMaxT set to 4.24D-01
     Eigenvalues ---    0.00230   0.00246   0.00542   0.00591   0.00715
     Eigenvalues ---    0.01123   0.01147   0.02802   0.03331   0.03521
     Eigenvalues ---    0.04241   0.04979   0.05121   0.07411   0.07570
     Eigenvalues ---    0.08863   0.09416   0.09453   0.10668   0.12098
     Eigenvalues ---    0.12756   0.13338   0.14309   0.15159   0.15671
     Eigenvalues ---    0.16019   0.19118   0.19730   0.20668   0.24443
     Eigenvalues ---    0.24883   0.44793   0.46225   0.48439   0.48720
     Eigenvalues ---    0.49796   0.50627   0.51683   0.52338   0.53426
     Eigenvalues ---    0.53692   0.583111000.000001000.000001000.00000
     Eigenvalues --- 1000.000001000.000001000.000001000.000001000.00000
     Eigenvalues --- 1000.000001000.000001000.000001000.000001000.00000
     Eigenvalues --- 1000.000001000.000001000.000001000.000001000.00000
     Eigenvalues --- 1000.00000
 RFO step:  Lambda=-6.48446755D-04.
 Quartic linear search produced a step of  0.21169.
 Iteration  1 RMS(Cart)=  0.04726518 RMS(Int)=  0.00113556
 Iteration  2 RMS(Cart)=  0.00117951 RMS(Int)=  0.00019364
 Iteration  3 RMS(Cart)=  0.00000139 RMS(Int)=  0.00019363
 Iteration  4 RMS(Cart)=  0.00000000 RMS(Int)=  0.00019363
 Variable       Old X    -DE/DX   Delta X   Delta X   Delta X     New X
                                 (Linear)    (Quad)   (Total)
    R1        1.82461   0.00101  -0.00119   0.00282   0.00163   1.82624
    R2        1.84269   0.00066  -0.00627   0.00417  -0.00212   1.84057
    R3        2.98842  -0.00246  -0.00771  -0.02525  -0.03293   2.95549
    R4        1.84202   0.00066  -0.00617   0.00410  -0.00209   1.83993
    R5        1.82463   0.00098  -0.00115   0.00272   0.00157   1.82620
    R6        2.97477  -0.00247  -0.00801  -0.02493  -0.03291   2.94186
    R7        1.89118   0.00306   0.00393   0.00570   0.00963   1.90081
    R8        1.90950   0.00233   0.00267   0.00547   0.00818   1.91768
    R9        1.91244   0.00248   0.00253   0.00597   0.00854   1.92098
   R10        3.07623  -0.00291  -0.00942  -0.03750  -0.04692   3.02931
   R11        1.82682   0.00107  -0.00345   0.00403   0.00058   1.82740
   R12        1.82669   0.00104  -0.00334   0.00391   0.00057   1.82726
   R13        3.67495   0.00042  -0.00276   0.00598   0.00318   3.67813
   R14        3.67698   0.00044  -0.00266   0.00630   0.00360   3.68058
   R15        1.83144   0.00058  -0.00624   0.00423  -0.00201   1.82943
   R16        1.83052   0.00062  -0.00581   0.00411  -0.00170   1.82882
    A1        1.88102  -0.00111  -0.01139  -0.00536  -0.01677   1.86425
    A2        2.12364   0.00133   0.00360   0.00970   0.01313   2.13678
    A3        1.98831  -0.00025   0.00010   0.00089   0.00101   1.98932
    A4        1.88512  -0.00116  -0.01122  -0.00560  -0.01684   1.86828
    A5        1.99783  -0.00034   0.00005   0.00045   0.00050   1.99834
    A6        2.12052   0.00141   0.00365   0.01015   0.01363   2.13415
    A7        1.99181  -0.00011  -0.00291  -0.01334  -0.01690   1.97491
    A8        1.97846  -0.00059  -0.00486  -0.01699  -0.02243   1.95603
    A9        1.88341  -0.00069  -0.00246  -0.00726  -0.01017   1.87325
   A10        2.07158   0.00097   0.00324   0.01220   0.01510   2.08667
   A11        2.08668   0.00222   0.00504   0.02066   0.02537   2.11205
   A12        1.84995  -0.00153  -0.01122   0.00289  -0.00876   1.84119
   A13        1.75652  -0.00131  -0.00114  -0.01337  -0.01460   1.74192
   A14        1.94024   0.00050   0.00318   0.00474   0.00792   1.94816
   A15        2.00278   0.00080   0.00329   0.00493   0.00829   2.01107
   A16        1.93601   0.00049   0.00316   0.00463   0.00780   1.94382
   A17        2.00448   0.00079   0.00325   0.00475   0.00808   2.01255
   A18        1.82750  -0.00115  -0.01068  -0.00492  -0.01558   1.81192
   A19        2.64344   0.00114   0.00033   0.00575   0.00603   2.64947
   A20        2.63197   0.00098   0.00019   0.00488   0.00503   2.63701
   A21        2.94592   0.00215   0.00197   0.00942   0.01139   2.95731
   A22        2.92699   0.00001   0.00023   0.00559   0.00604   2.93303
   A23        2.91996   0.00045   0.00062   0.00763   0.00846   2.92842
    D1        2.83229   0.00070  -0.00281   0.00870   0.00610   2.83839
    D2        0.42027   0.00014   0.00396  -0.00091   0.00300   0.42328
    D3       -2.49636   0.00079   0.01252   0.01790   0.03053  -2.46583
    D4       -0.19657   0.00018  -0.00210   0.02131   0.01924  -0.17733
    D5       -2.87646  -0.00066   0.00296  -0.00902  -0.00627  -2.88273
    D6       -0.45532  -0.00013  -0.00393   0.00065  -0.00324  -0.45857
    D7        0.19564  -0.00004   0.00291  -0.01686  -0.01393   0.18171
    D8        2.51037  -0.00073  -0.01157  -0.01362  -0.02530   2.48507
    D9       -2.75853  -0.00096  -0.00774  -0.03307  -0.04041  -2.79894
   D10        1.35894   0.00058   0.00251   0.00205   0.00416   1.36310
   D11       -2.36052   0.00120   0.00869   0.03303   0.04162  -2.31890
   D12       -0.14465  -0.00022  -0.00222  -0.00518  -0.00718  -0.15183
   D13        2.38132  -0.00098  -0.00820  -0.03427  -0.04225   2.33907
   D14        0.15771   0.00015   0.00156   0.00155   0.00284   0.16055
   D15        1.11759  -0.00078   0.00177  -0.04582  -0.04429   1.07330
   D16       -2.85858   0.00062  -0.00686   0.00037  -0.00626  -2.86483
   D17       -0.25745   0.00026  -0.00071  -0.01588  -0.01652  -0.27397
   D18        1.79410   0.00033   0.00360  -0.01574  -0.01215   1.78196
   D19       -2.41954  -0.00024  -0.00563  -0.01524  -0.02084  -2.44038
   D20        0.28294  -0.00026   0.00060   0.01584   0.01636   0.29930
   D21       -1.77172  -0.00034  -0.00373   0.01559   0.01186  -1.75986
   D22        2.44386   0.00025   0.00554   0.01530   0.02081   2.46467
         Item               Value     Threshold  Converged?
 Maximum Force            0.003058     0.000450     NO 
 RMS     Force            0.001163     0.000300     NO 
 Maximum Displacement     0.134652     0.001800     NO 
 RMS     Displacement     0.047685     0.001200     NO 
 Predicted change in Energy=-4.481233D-04
 GradGradGradGradGradGradGradGradGradGradGradGradGradGradGradGradGradGrad

                          Input orientation:                          
 ---------------------------------------------------------------------
 Center     Atomic     Atomic              Coordinates (Angstroms)
 Number     Number      Type              X           Y           Z
 ---------------------------------------------------------------------
    1          8             0       -1.045449    1.556145   -0.754002
    2          8             0        1.767910   -0.789229   -0.149327
    3          8             0       -0.357104   -0.086809    1.092116
    4          8             0       -1.862988   -2.012541    1.972830
    5          8             0        1.465913    1.290686   -2.058314
    6          1             0       -1.513203    2.392039   -0.625843
    7          1             0       -0.275573    1.747856   -1.318972
    8          1             0        1.987203   -0.126006   -0.827588
    9          1             0        2.600146   -1.063530    0.258154
   10          1             0       -1.004538   -0.815367    1.340708
   11          1             0       -0.739514    0.576756    0.426349
   12          1             0       -2.269282   -1.900409    2.843160
   13          1             0       -2.514834   -2.491790    1.443307
   14          1             0        1.392837    0.960724   -2.965504
   15          1             0        2.089848    2.027011   -2.129778
   16          1             0        0.500152   -0.458004    0.691269
 ---------------------------------------------------------------------
                    Distance matrix (angstroms):
                    1          2          3          4          5
     1  O    0.000000
     2  O    3.712331   0.000000
     3  O    2.565399   2.559347   0.000000
     4  O    4.565031   4.379893   2.598420   0.000000
     5  O    2.842294   2.839274   3.891798   6.184093   0.000000
     6  H    0.966404   4.594914   3.229960   5.125991   3.484262
     7  H    0.973989   3.461313   3.030840   5.243705   1.946382
     8  H    3.468721   0.973649   3.030276   5.121067   1.947676
     9  H    4.601904   0.966385   3.224098   4.874454   3.492111
    10  H    3.164419   3.147595   1.005865   1.603041   4.700205
    11  H    1.563978   2.912815   1.014792   3.218425   3.398110
    12  H    5.136643   5.146709   3.164130   0.967018   6.939683
    13  H    4.834567   4.876176   3.250087   0.966942   6.512666
    14  H    3.345221   3.336745   4.541354   6.620260   0.968095
    15  H    3.456091   3.457896   4.564693   6.983860   0.967770
    16  H    2.921385   1.556767   1.016539   3.105384   3.398649
                    6          7          8          9         10
     6  H    0.000000
     7  H    1.557925   0.000000
     8  H    4.316723   2.978753   0.000000
     9  H    5.444452   4.319835   1.559964   0.000000
    10  H    3.796514   3.765023   3.758622   3.771904   0.000000
    11  H    2.236282   2.152409   3.082405   3.724535   1.686504
    12  H    5.570525   5.882861   5.894112   5.576195   2.243715
    13  H    5.397817   5.533451   5.569761   5.441281   2.258742
    14  H    3.995966   2.472698   2.470817   3.993391   5.238832
    15  H    3.921358   2.516058   2.518277   3.938790   5.449644
    16  H    3.729763   3.083608   2.151389   2.228055   1.677370
                   11         12         13         14         15
    11  H    0.000000
    12  H    3.783849   0.000000
    13  H    3.688080   1.539356   0.000000
    14  H    4.024800   7.438936   6.828423   0.000000
    15  H    4.079500   7.691343   7.374931   1.523558   0.000000
    16  H    1.636363   3.792219   3.713756   4.022645   4.081758
                   16
    16  H    0.000000
 Stoichiometry    H11O5(1+)
 Framework group  C1[X(H11O5)]
 Deg. of freedom    42
 Full point group                 C1
 Largest Abelian subgroup         C1      NOp   1
 Largest concise Abelian subgroup C1      NOp   1
                         Standard orientation:                         
 ---------------------------------------------------------------------
 Center     Atomic     Atomic              Coordinates (Angstroms)
 Number     Number      Type              X           Y           Z
 ---------------------------------------------------------------------
    1          8             0       -0.756026    1.865193    0.007370
    2          8             0       -0.619506   -1.844483   -0.025378
    3          8             0        0.965971    0.072489   -0.626827
    4          8             0        3.364665   -0.066996    0.362416
    5          8             0       -2.818709   -0.072826    0.268255
    6          1             0       -0.861560    2.727375   -0.416236
    7          1             0       -1.641496    1.461669    0.049401
    8          1             0       -1.534928   -1.514943    0.012031
    9          1             0       -0.648103   -2.712795   -0.448598
   10          1             0        1.858726    0.091122   -0.163786
   11          1             0        0.379032    0.866893   -0.393962
   12          1             0        4.099293    0.202214   -0.205890
   13          1             0        3.612554    0.211918    1.254456
   14          1             0       -3.207991   -0.100294    1.154208
   15          1             0       -3.585553   -0.091844   -0.321802
   16          1             0        0.438866   -0.768327   -0.406509
 ---------------------------------------------------------------------
 Rotational constants (GHZ):      3.4977664      1.2171496      0.9481755
 Standard basis: Aug-CC-pVDZ (5D, 7F)
 There are   214 symmetry adapted basis functions of A   symmetry.
 Integral buffers will be    131072 words long.
 Raffenetti 1 integral format.
 Two-electron integral symmetry is turned on.
   214 basis functions,   336 primitive gaussians,   224 cartesian basis functions
    25 alpha electrons       25 beta electrons
       nuclear repulsion energy       213.3587417415 Hartrees.
 NAtoms=   16 NActive=   16 NUniq=   16 SFac= 7.50D-01 NAtFMM=   80 NAOKFM=F Big=F
 One-electron integrals computed using PRISM.
 NBasis=   214 RedAO= T  NBF=   214
 NBsUse=   214 1.00D-06 NBFU=   214
 Initial guess read from the read-write file:
 Initial guess orbital symmetries:
       Occupied  (A) (A) (A) (A) (A) (A) (A) (A) (A) (A) (A) (A)
                 (A) (A) (A) (A) (A) (A) (A) (A) (A) (A) (A) (A)
                 (A)
       Virtual   (A) (A) (A) (A) (A) (A) (A) (A) (A) (A) (A) (A)
                 (A) (A) (A) (A) (A) (A) (A) (A) (A) (A) (A) (A)
                 (A) (A) (A) (A) (A) (A) (A) (A) (A) (A) (A) (A)
                 (A) (A) (A) (A) (A) (A) (A) (A) (A) (A) (A) (A)
                 (A) (A) (A) (A) (A) (A) (A) (A) (A) (A) (A) (A)
                 (A) (A) (A) (A) (A) (A) (A) (A) (A) (A) (A) (A)
                 (A) (A) (A) (A) (A) (A) (A) (A) (A) (A) (A) (A)
                 (A) (A) (A) (A) (A) (A) (A) (A) (A) (A) (A) (A)
                 (A) (A) (A) (A) (A) (A) (A) (A) (A) (A) (A) (A)
                 (A) (A) (A) (A) (A) (A) (A) (A) (A) (A) (A) (A)
                 (A) (A) (A) (A) (A) (A) (A) (A) (A) (A) (A) (A)
                 (A) (A) (A) (A) (A) (A) (A) (A) (A) (A) (A) (A)
                 (A) (A) (A) (A) (A) (A) (A) (A) (A) (A) (A) (A)
                 (A) (A) (A) (A) (A) (A) (A) (A) (A) (A) (A) (A)
                 (A) (A) (A) (A) (A) (A) (A) (A) (A) (A) (A) (A)
                 (A) (A) (A) (A) (A) (A) (A) (A) (A)
 Harris functional with IExCor=  205 diagonalized for initial guess.
 ExpMin= 2.97D-02 ExpMax= 1.17D+04 ExpMxC= 4.01D+02 IAcc=3 IRadAn=         5 AccDes= 0.00D+00
 HarFok:  IExCor= 205 AccDes= 0.00D+00 IRadAn=         5 IDoV=1
 ScaDFX=  1.000000  1.000000  1.000000  1.000000
 Requested convergence on RMS density matrix=1.00D-08 within 128 cycles.
 Requested convergence on MAX density matrix=1.00D-06.
 Requested convergence on             energy=1.00D-06.
 No special actions if energy rises.
 SCF Done:  E(RHF) =  -380.607513375     A.U. after    9 cycles
             Convg  =    0.9113D-08             -V/T =  2.0017
             S**2   =   0.0000
 ExpMin= 2.97D-02 ExpMax= 1.17D+04 ExpMxC= 4.01D+02 IAcc=3 IRadAn=         5 AccDes= 0.00D+00
 HarFok:  IExCor= 205 AccDes= 0.00D+00 IRadAn=         5 IDoV=1
 ScaDFX=  1.000000  1.000000  1.000000  1.000000
 Range of M.O.s used for correlation:     6   214
 NBasis=   214 NAE=    25 NBE=    25 NFC=     5 NFV=     0
 NROrb=    209 NOA=    20 NOB=    20 NVA=   189 NVB=   189

 **** Warning!!: The largest alpha MO coefficient is  0.10193863D+02

 Fully direct method using O(ONN) memory.
 JobTyp=1 Pass  1:  I=   6 to  12 NPSUse=  4 ParTrn=T ParDer=T DoDerP=T.
 JobTyp=1 Pass  2:  I=  13 to  19 NPSUse=  4 ParTrn=T ParDer=T DoDerP=T.
 JobTyp=1 Pass  3:  I=  20 to  25 NPSUse=  4 ParTrn=T ParDer=T DoDerP=T.
 Spin components of T(2) and E(2):
     alpha-alpha T2 =       0.3870938748D-01 E2=     -0.1433705332D+00
     alpha-beta  T2 =       0.2147514557D+00 E2=     -0.8264721427D+00
     beta-beta   T2 =       0.3870938748D-01 E2=     -0.1433705332D+00
 ANorm=    0.1136736658D+01
 E2 =    -0.1113213209D+01 EUMP2 =    -0.38172072658371D+03
 DoAtom=TTTTTTTTTTTTTTTT
          Differentiating once with respect to electric field.
                with respect to dipole field.
          Differentiating once with respect to nuclear coordinates.
          There are   1 degrees of freedom in the 1st order CPHF.
 Petite list used in FoFDir.
 MinBra= 0 MaxBra= 2 Meth= 1.
 IRaf=       0 NMat=   1 IRICut=       1 DoRegI=T DoRafI=F ISym2E= 1 JSym2E=1.
     1 vectors were produced by pass  0.
 AX will form   1 AO Fock derivatives at one time.
     1 vectors were produced by pass  1.
     1 vectors were produced by pass  2.
     1 vectors were produced by pass  3.
     1 vectors were produced by pass  4.
     1 vectors were produced by pass  5.
     1 vectors were produced by pass  6.
     1 vectors were produced by pass  7.
     1 vectors were produced by pass  8.
     1 vectors were produced by pass  9.
     1 vectors were produced by pass 10.
     1 vectors were produced by pass 11.
     1 vectors were produced by pass 12.
 Inv2:  IOpt= 1 Iter= 1 AM= 4.34D-16 Conv= 1.00D-12.
 Inverted reduced A of dimension   13 with in-core refinement.
 End of Minotr Frequency-dependent properties file   721 does not exist.
 ***** Axes restored to original set *****
 -------------------------------------------------------------------
 Center     Atomic                   Forces (Hartrees/Bohr)
 Number     Number              X              Y              Z
 -------------------------------------------------------------------
    1          8          -0.001973412   -0.000410817    0.002027818
    2          8          -0.000685260   -0.001754115    0.002394498
    3          8          -0.000798627    0.000173465    0.001740459
    4          8           0.000809974    0.002568012   -0.002773755
    5          8          -0.000177998    0.000003880    0.000474359
    6          1          -0.000511259    0.000380772   -0.000199378
    7          1           0.001986317   -0.001152836   -0.000053607
    8          1          -0.001242472    0.001633952   -0.000762440
    9          1           0.000492668   -0.000452990   -0.000047935
   10          1          -0.000596082   -0.002070104    0.002253727
   11          1           0.000697177    0.001078953   -0.002265659
   12          1          -0.000146343   -0.000281528    0.001030912
   13          1          -0.000525214   -0.001168608    0.000106965
   14          1          -0.000252705   -0.000797662   -0.001817950
   15          1           0.001221007    0.001457076   -0.000038044
   16          1           0.001702227    0.000792550   -0.002069970
 -------------------------------------------------------------------
 Cartesian Forces:  Max     0.002773755 RMS     0.001307612

 GradGradGradGradGradGradGradGradGradGradGradGradGradGradGradGradGradGrad
 Berny optimization.
 Internal  Forces:  Max     0.002069972 RMS     0.000848392
 Search for a local minimum.
 Step number   3 out of a maximum of 100
 All quantities printed in internal units (Hartrees-Bohrs-Radians)
 Update second derivatives using D2CorX and points  1  2  3
 Trust test= 1.42D+00 RLast= 1.40D-01 DXMaxT set to 4.24D-01
     Eigenvalues ---    0.00229   0.00242   0.00542   0.00589   0.00715
     Eigenvalues ---    0.01081   0.01137   0.02397   0.02811   0.03429
     Eigenvalues ---    0.03986   0.04962   0.04988   0.06599   0.07590
     Eigenvalues ---    0.08716   0.09420   0.09908   0.10581   0.12019
     Eigenvalues ---    0.12583   0.13573   0.14271   0.14947   0.15562
     Eigenvalues ---    0.16075   0.19640   0.19722   0.20722   0.24406
     Eigenvalues ---    0.24650   0.44717   0.46211   0.48436   0.48578
     Eigenvalues ---    0.49863   0.50638   0.52219   0.52352   0.53663
     Eigenvalues ---    0.53695   0.634131000.000001000.000001000.00000
     Eigenvalues --- 1000.000001000.000001000.000001000.000001000.00000
     Eigenvalues --- 1000.000001000.000001000.000001000.000001000.00000
     Eigenvalues --- 1000.000001000.000001000.000001000.000001000.00000
     Eigenvalues --- 1000.00000
 RFO step:  Lambda=-2.50181705D-04.
 Quartic linear search produced a step of  0.83951.
 Iteration  1 RMS(Cart)=  0.06271546 RMS(Int)=  0.00209732
 Iteration  2 RMS(Cart)=  0.00212518 RMS(Int)=  0.00044110
 Iteration  3 RMS(Cart)=  0.00000386 RMS(Int)=  0.00044104
 Iteration  4 RMS(Cart)=  0.00000000 RMS(Int)=  0.00044104
 Variable       Old X    -DE/DX   Delta X   Delta X   Delta X     New X
                                 (Linear)    (Quad)   (Total)
    R1        1.82624   0.00055   0.00137   0.00005   0.00142   1.82766
    R2        1.84057   0.00207  -0.00178   0.00359   0.00177   1.84234
    R3        2.95549  -0.00116  -0.02764  -0.00780  -0.03537   2.92012
    R4        1.83993   0.00206  -0.00175   0.00359   0.00180   1.84173
    R5        1.82620   0.00053   0.00132   0.00005   0.00137   1.82757
    R6        2.94186  -0.00112  -0.02763  -0.00711  -0.03466   2.90720
    R7        1.90081   0.00114   0.00808   0.00174   0.00983   1.91064
    R8        1.91768   0.00090   0.00687   0.00136   0.00831   1.92599
    R9        1.92098   0.00101   0.00717   0.00148   0.00874   1.92972
   R10        3.02931  -0.00155  -0.03939  -0.01369  -0.05308   2.97623
   R11        1.82740   0.00096   0.00049   0.00034   0.00083   1.82823
   R12        1.82726   0.00087   0.00048   0.00016   0.00063   1.82789
   R13        3.67813   0.00036   0.00267   0.00583   0.00842   3.68655
   R14        3.68058   0.00038   0.00302   0.00635   0.00929   3.68987
   R15        1.82943   0.00199  -0.00168   0.00332   0.00164   1.83107
   R16        1.82882   0.00190  -0.00143   0.00311   0.00168   1.83050
    A1        1.86425   0.00042  -0.01408   0.00877  -0.00536   1.85889
    A2        2.13678   0.00044   0.01102   0.00462   0.01560   2.15237
    A3        1.98932  -0.00068   0.00085  -0.00024   0.00064   1.98996
    A4        1.86828   0.00039  -0.01414   0.00852  -0.00567   1.86261
    A5        1.99834  -0.00075   0.00042  -0.00063  -0.00019   1.99814
    A6        2.13415   0.00051   0.01144   0.00520   0.01659   2.15074
    A7        1.97491  -0.00006  -0.01419  -0.00450  -0.01978   1.95513
    A8        1.95603  -0.00006  -0.01883  -0.00306  -0.02293   1.93310
    A9        1.87325  -0.00074  -0.00854  -0.00740  -0.01675   1.85649
   A10        2.08667   0.00022   0.01267   0.00688   0.01825   2.10492
   A11        2.11205   0.00135   0.02130   0.01464   0.03465   2.14669
   A12        1.84119  -0.00032  -0.00736   0.00684  -0.00211   1.83907
   A13        1.74192  -0.00128  -0.01226  -0.01073  -0.02319   1.71873
   A14        1.94816   0.00023   0.00665   0.00107   0.00780   1.95596
   A15        2.01107   0.00039   0.00696   0.00089   0.00797   2.01903
   A16        1.94382   0.00023   0.00655   0.00102   0.00765   1.95147
   A17        2.01255   0.00038   0.00678   0.00080   0.00769   2.02025
   A18        1.81192   0.00008  -0.01308   0.00663  -0.00651   1.80541
   A19        2.64947   0.00118   0.00506   0.00673   0.01166   2.66113
   A20        2.63701   0.00101   0.00423   0.00604   0.01014   2.64715
   A21        2.95731   0.00198   0.00956   0.00895   0.01851   2.97582
   A22        2.93303   0.00050   0.00507   0.00511   0.01049   2.94353
   A23        2.92842   0.00088   0.00710   0.00673   0.01413   2.94255
    D1        2.83839   0.00037   0.00512   0.01072   0.01586   2.85425
    D2        0.42328  -0.00004   0.00252  -0.00461  -0.00206   0.42122
    D3       -2.46583   0.00002   0.02563  -0.00804   0.01758  -2.44825
    D4       -0.17733   0.00038   0.01615   0.01139   0.02761  -0.14971
    D5       -2.88273  -0.00037  -0.00526  -0.01145  -0.01673  -2.89946
    D6       -0.45857   0.00005  -0.00272   0.00450   0.00173  -0.45684
    D7        0.18171  -0.00033  -0.01170  -0.00880  -0.02053   0.16118
    D8        2.48507  -0.00001  -0.02124   0.01078  -0.01044   2.47463
    D9       -2.79894  -0.00067  -0.03392  -0.01825  -0.05154  -2.85048
   D10        1.36310   0.00038   0.00349  -0.00290  -0.00004   1.36306
   D11       -2.31890   0.00059   0.03494   0.01839   0.05302  -2.26588
   D12       -0.15183  -0.00006  -0.00603   0.00609   0.00041  -0.15142
   D13        2.33907  -0.00058  -0.03547  -0.02120  -0.05626   2.28281
   D14        0.16055   0.00006   0.00238  -0.00822  -0.00625   0.15429
   D15        1.07330  -0.00085  -0.03718  -0.02886  -0.06682   1.00648
   D16       -2.86483   0.00074  -0.00525   0.01334   0.00888  -2.85596
   D17       -0.27397   0.00006  -0.01387  -0.00895  -0.02278  -0.29675
   D18        1.78196  -0.00027  -0.01020  -0.01314  -0.02342   1.75853
   D19       -2.44038   0.00028  -0.01749  -0.00304  -0.02045  -2.46082
   D20        0.29930  -0.00006   0.01373   0.00894   0.02262   0.32192
   D21       -1.75986   0.00027   0.00995   0.01304   0.02306  -1.73680
   D22        2.46467  -0.00027   0.01747   0.00307   0.02045   2.48512
         Item               Value     Threshold  Converged?
 Maximum Force            0.002070     0.000450     NO 
 RMS     Force            0.000848     0.000300     NO 
 Maximum Displacement     0.180445     0.001800     NO 
 RMS     Displacement     0.063443     0.001200     NO 
 Predicted change in Energy=-3.152406D-04
 GradGradGradGradGradGradGradGradGradGradGradGradGradGradGradGradGradGrad

                          Input orientation:                          
 ---------------------------------------------------------------------
 Center     Atomic     Atomic              Coordinates (Angstroms)
 Number     Number      Type              X           Y           Z
 ---------------------------------------------------------------------
    1          8             0       -1.037062    1.565374   -0.708359
    2          8             0        1.760089   -0.768246   -0.098929
    3          8             0       -0.344140   -0.048629    1.143579
    4          8             0       -1.856443   -1.996870    1.892659
    5          8             0        1.439326    1.247692   -2.085318
    6          1             0       -1.490872    2.412260   -0.597785
    7          1             0       -0.277710    1.732723   -1.296458
    8          1             0        1.967185   -0.126890   -0.802934
    9          1             0        2.603372   -1.030976    0.294960
   10          1             0       -0.994203   -0.793640    1.354838
   11          1             0       -0.724962    0.609943    0.465343
   12          1             0       -2.240392   -1.969674    2.780252
   13          1             0       -2.503176   -2.466456    1.347820
   14          1             0        1.340401    0.887133   -2.979241
   15          1             0        2.067231    1.975613   -2.204325
   16          1             0        0.512880   -0.421824    0.732462
 ---------------------------------------------------------------------
                    Distance matrix (angstroms):
                    1          2          3          4          5
     1  O    0.000000
     2  O    3.693405   0.000000
     3  O    2.552415   2.547441   0.000000
     4  O    4.486230   4.307579   2.577561   0.000000
     5  O    2.851216   2.848268   3.909856   6.100293   0.000000
     6  H    0.967154   4.575284   3.225418   5.077045   3.486407
     7  H    0.974926   3.441155   3.021822   5.154874   1.950838
     8  H    3.449377   0.974602   3.022790   5.038172   1.952593
     9  H    4.582624   0.967110   3.220712   4.834826   3.494718
    10  H    3.134257   3.114515   1.011065   1.574951   4.682283
    11  H    1.545261   2.897117   1.019189   3.180087   3.405398
    12  H    5.110281   5.073160   3.156720   0.967459   6.896777
    13  H    4.757417   4.811697   3.247928   0.967277   6.412850
    14  H    3.356970   3.348524   4.550932   6.501746   0.968962
    15  H    3.470280   3.472145   4.595730   6.925397   0.968658
    16  H    2.902971   1.538424   1.021164   3.072543   3.403743
                    6          7          8          9         10
     6  H    0.000000
     7  H    1.556173   0.000000
     8  H    4.295059   2.956566   0.000000
     9  H    5.423624   4.297823   1.558036   0.000000
    10  H    3.786451   3.731654   3.724292   3.757954   0.000000
    11  H    2.228275   2.136496   3.065796   3.714761   1.683370
    12  H    5.583391   5.846317   5.825699   5.524480   2.228867
    13  H    5.349020   5.438567   5.484837   5.407952   2.252856
    14  H    4.001681   2.482955   2.481414   3.999329   5.201886
    15  H    3.928324   2.526256   2.528720   3.946321   5.450576
    16  H    3.717071   3.063270   2.135282   2.220952   1.672393
                   11         12         13         14         15
    11  H    0.000000
    12  H    3.782823   0.000000
[...]
   A16        1.97440   0.00000   0.00000   0.00066   0.00066   1.97506
   A17        2.03401  -0.00001   0.00000  -0.00083  -0.00083   2.03318
   A18        1.81532   0.00001   0.00000   0.00015   0.00015   1.81547
   A19        2.74226   0.00000   0.00000   0.00009   0.00009   2.74235
   A20        2.72590   0.00000   0.00000   0.00038   0.00038   2.72628
   A21        3.04245   0.00000   0.00000   0.00046   0.00046   3.04291
   A22        2.93001   0.00000   0.00000  -0.00001  -0.00001   2.93001
   A23        2.93106   0.00001   0.00000   0.00024   0.00024   2.93129
    D1        2.87771   0.00000   0.00000  -0.00288  -0.00288   2.87484
    D2        0.42641   0.00000   0.00000  -0.00373  -0.00373   0.42268
    D3       -2.60275  -0.00001   0.00000  -0.00059  -0.00059  -2.60334
    D4       -0.28640   0.00001   0.00000   0.00044   0.00044  -0.28596
    D5       -2.91690   0.00000   0.00000   0.00321   0.00321  -2.91369
    D6       -0.44892   0.00000   0.00000   0.00338   0.00338  -0.44554
    D7        0.30645  -0.00001   0.00000  -0.00085  -0.00085   0.30561
    D8        2.64286   0.00000   0.00000  -0.00056  -0.00056   2.64230
    D9       -2.88078   0.00001   0.00000   0.05316   0.05316  -2.82762
   D10        1.35450   0.00000   0.00000   0.05308   0.05308   1.40757
   D11       -2.04316   0.00000   0.00000   0.00166   0.00166  -2.04150
   D12        0.06321   0.00000   0.00000   0.00206   0.00206   0.06527
   D13        2.04115   0.00000   0.00000  -0.00178  -0.00178   2.03938
   D14       -0.07193   0.00000   0.00000  -0.00173  -0.00173  -0.07366
   D15        0.88751  -0.00001   0.00000  -0.05359  -0.05359   0.83391
   D16       -2.77842   0.00001   0.00000  -0.04436  -0.04436  -2.82278
   D17       -0.31003  -0.00001   0.00000   0.00259   0.00259  -0.30744
   D18        1.73451   0.00000   0.00000   0.00371   0.00371   1.73822
   D19       -2.44252   0.00001   0.00000   0.00369   0.00369  -2.43882
   D20        0.32435   0.00001   0.00000  -0.00217  -0.00217   0.32217
   D21       -1.72302   0.00000   0.00000  -0.00326  -0.00327  -1.72629
   D22        2.45702  -0.00001   0.00000  -0.00336  -0.00336   2.45367
         Item               Value     Threshold  Converged?
 Maximum Force            0.000023     0.000450     YES
 RMS     Force            0.000007     0.000300     YES
 Maximum Displacement     0.007939     0.001800     NO 
 RMS     Displacement     0.002521     0.001200     NO 
 Predicted change in Energy=-4.081807D-07
 GradGradGradGradGradGradGradGradGradGradGradGradGradGradGradGradGradGrad

 1\1\GINC-NODE82\Freq\RMP2-FC\Aug-CC-pVDZ\H11O5(1+)\CHINH\11-May-2010\0
 \\#N Geom=AllCheck Guess=Read SCRF=Check GenChk RMP2(FC)/Aug-CC-pVDZ F
 req\\Str 5\\1,1\O,-1.0061845898,1.5596521066,-0.6573720479\O,1.7614091
 964,-0.720358359,-0.0542022338\O,-0.3255828848,-0.0165760735,1.2327715
 072\O,-1.9006825551,-1.9751395183,1.8160677394\O,1.4136914918,1.204783
 6998,-2.1459057827\H,-1.4383399651,2.4217887406,-0.5888913629\H,-0.251
 2555951,1.6663033668,-1.2672487718\H,1.9086879737,-0.1030520946,-0.795
 6202727\H,2.6306818318,-0.9585747451,0.295388188\H,-0.9746456392,-0.76
 86556833,1.4115978873\H,-0.6966463709,0.6464862772,0.5550162113\H,-2.2
 624895819,-2.0747192078,2.707684357\H,-2.5037120455,-2.4511913618,1.22
 89047745\H,1.2886393756,0.81560116,-3.0253073189\H,2.0394794774,1.9296
 168466,-2.2968587159\H,0.5384742247,-0.3684330673,0.8225404007\\Versio
 n=AM64L-G03RevD.01\State=1-A\HF=-380.6075352\MP2=-381.7214487\RMSD=1.9
 29e-09\RMSF=1.867e-05\ZeroPoint=0.1347206\Thermal=0.1478208\Dipole=0.0
 414176,0.2456993,-0.4397045\DipoleDeriv=-0.6602409,0.1199652,-0.003956
 5,0.0836024,-0.6103623,0.1499152,0.0079659,0.1789824,-0.7818915,-0.731
 0829,0.1040861,0.1417361,0.1482255,-0.6058906,0.0290097,0.1588876,0.03
 61018,-0.7122638,-0.9497882,-0.037471,0.2311425,-0.0325656,-0.8461257,
 0.3271821,0.2152246,0.3102843,-0.6973657,-0.6092731,-0.1231144,0.07577
 72,-0.1444012,-0.7494327,0.1195028,0.0567811,0.0870291,-0.5295804,-0.6
 41626,0.0956806,0.0189544,0.0966619,-0.5797807,0.0620385,0.025163,0.06
 91785,-0.5631797,0.3508673,-0.0368249,0.0303973,-0.0252255,0.2739353,0
 .0345142,0.0153453,0.0566329,0.2798044,0.5481415,-0.0561213,-0.1886681
 ,-0.0613852,0.2210555,0.0666656,-0.1794257,0.0530354,0.3938993,0.21387
 48,-0.0512013,0.0635048,-0.0475235,0.4336219,-0.195135,0.0480212,-0.18
 94047,0.5097514,0.2654434,-0.0332126,0.0346533,-0.0410896,0.3470192,0.
 0132472,0.0607053,0.0047994,0.2946993,0.6749346,0.5184455,-0.2686508,0
 .5420544,0.8125272,-0.2934918,-0.2113113,-0.2164896,0.3736206,0.274224
 6,-0.2157176,0.185091,-0.1624205,0.7946233,-0.4897493,0.1389399,-0.529
 9676,0.7653626,0.2740658,-0.0546894,0.0165262,-0.0568456,0.3000321,0.0
 009643,0.0052161,-0.0170593,0.3488398,0.280297,-0.0419503,0.0225541,-0
 .0433814,0.3238878,0.0232948,0.0322654,0.0378868,0.3019757,0.2994343,-
 0.0156481,0.0267065,-0.0168307,0.3043104,0.0224129,0.0226776,0.0178601
 ,0.2823016,0.3121485,-0.0033056,0.0186894,-0.0014216,0.3182452,0.00551
 17,0.0250871,0.0133204,0.2550782,1.0985793,-0.168921,-0.4044575,-0.237
 4538,0.2623342,0.1241171,-0.421543,0.0878101,0.4789482\Polar=46.112022
 ,0.3071821,44.0280129,-3.8236406,-4.9673841,44.3319073\PG=C01 [X(H11O5
 )]\NImag=0\\0.42786110,-0.17700452,0.49497449,-0.25748855,-0.04103549,
 0.25484479,-0.00007747,0.00187958,-0.00229844,0.52874712,0.00097148,-0
 .00001808,-0.00003304,-0.07652795,0.25240212,-0.00074674,-0.00111672,0
 .00319702,0.08277029,-0.29004378,0.39881258,0.00811210,0.00814115,-0.0
 1028586,-0.03631419,0.00837205,0.02312056,0.55100235,0.00697001,-0.020
 94454,0.02797283,0.00915114,0.00724550,-0.00712558,-0.00675148,0.49242
 879,-0.00958052,0.02599700,-0.01647194,0.02084903,-0.00700229,-0.00067
 034,-0.08142837,-0.16650252,0.29708819,0.00112550,-0.00140895,0.001648
 84,-0.00136099,0.00038936,0.00110359,-0.01340216,-0.02143831,0.0098413
 6,0.33400581,0.00044339,-0.00132423,0.00200067,-0.00233937,0.00129194,
 0.00134421,-0.02058501,-0.01674450,0.01128821,0.23038752,0.18617905,0.
 00001674,0.00038974,-0.00021321,0.00062587,-0.00014036,-0.00008831,0.0
 0783818,0.00809422,0.00478449,0.00357029,0.09617690,0.68002296,-0.0062
 0113,0.00184872,0.00783769,0.00375123,0.00120866,-0.00213682,0.0021980
 8,-0.00219844,0.00111038,0.00001501,-0.00027934,0.00016885,0.26004083,
 0.00178157,0.00368728,-0.00182892,0.00121860,-0.00212742,0.00794421,-0
 .00215176,0.00163052,0.00006211,-0.00017897,0.00004609,0.00010836,0.28
 303091,0.40448192,0.00623316,-0.00092152,-0.00108780,-0.00099184,0.006
 53430,-0.00516044,0.00120806,0.00019383,-0.00067564,0.00031780,0.00035
 371,-0.00009265,-0.00776144,0.11712999,0.49732198,-0.12069359,0.173174
 68,0.04098953,0.00010510,-0.00018952,-0.00007167,0.00099823,-0.0012967
 2,0.00163633,-0.00036127,-0.00012985,0.00008882,-0.00065041,-0.0006337
 5,0.00051961,0.13431678,0.21711728,-0.42140176,-0.03211995,-0.00008107
 ,0.00013674,-0.00008761,0.00003846,0.00098742,0.00013697,-0.00001330,0
 .00015210,-0.00009885,-0.00121139,0.00031450,0.00064391,-0.20732394,0.
 42135716,0.02967170,-0.00367411,-0.03140717,-0.00023154,0.00002845,0.0
 0002405,-0.00104175,0.00467617,-0.00636231,0.00028690,0.00010222,-0.00
 011252,0.00085770,0.00049319,-0.00057455,-0.03879423,0.02716102,0.0285
 0601,-0.28773221,-0.01039226,0.21614590,-0.00094538,-0.00112727,0.0021
 9420,-0.00436818,0.00541226,-0.00319159,0.00007058,0.00045203,-0.00016
 763,0.00025133,-0.00285053,-0.00318515,-0.01175267,-0.00897359,0.01009
 594,0.29439825,-0.05146340,-0.05684352,0.06339556,-0.00023067,0.000230
 84,-0.00100503,0.00296219,-0.00271590,0.00152593,0.00002829,-0.0001640
 7,-0.00003173,-0.00175988,-0.00651322,-0.00112948,0.03304655,0.0025027
 5,-0.02699832,0.02490811,0.05796919,0.22611181,0.02970695,-0.19379031,
 0.00087989,-0.00015017,-0.00145480,-0.00116771,-0.00078933,0.00042141,
 -0.00023544,-0.00049244,0.00011075,-0.00619520,0.00045610,-0.00361624,
 -0.00177886,0.00483515,-0.00058623,-0.22397939,-0.03705341,0.20174692,
 0.00069101,-0.00037464,-0.00072456,-0.06832113,-0.05764873,0.07817404,
 -0.00422588,0.00335973,0.00018890,-0.00008493,0.00004551,-0.00006538,-
 0.00556489,-0.00138737,-0.00078805,0.00000513,0.00015465,0.00006029,-0
 .00106247,0.00146553,-0.00043059,0.06650975,-0.00128752,-0.00063539,0.
 00146299,-0.02504461,-0.19506809,0.22651243,0.00555533,-0.00324717,-0.
 00065311,0.00024697,0.00005312,-0.00008503,-0.00264833,-0.00304545,-0.
 00426446,0.00008865,-0.00023782,0.00002100,0.00277896,-0.00052557,-0.0
 0072082,0.03732510,0.19932433,0.00056333,0.00056021,-0.00222565,0.0354
 7005,0.22147135,-0.27649515,-0.00292506,0.00031117,0.00070606,-0.00048
 258,-0.00034212,0.00008285,0.00161737,-0.00656828,-0.00114136,-0.00001
 399,0.00011462,-0.00002487,-0.00222140,0.00046766,0.00254728,-0.048440
 58,-0.22519424,0.28954167,0.00017100,-0.00001381,-0.00004052,-0.432762
 90,0.12235992,-0.16908793,-0.00051138,0.00044115,0.00140060,0.00010955
 ,-0.00001205,-0.00003712,0.00031136,-0.00101581,0.00103521,-0.00003578
 ,0.00003259,-0.00000564,-0.00029021,0.00009437,0.00003509,0.00444654,-
 0.00725779,0.00806830,0.43127621,-0.00012192,-0.00000698,-0.00011551,0
 .08542719,-0.04410012,0.06032251,-0.00036988,0.00079526,0.00015403,-0.
 00002877,-0.00032576,0.00010356,-0.00040598,-0.00059900,0.00058215,0.0
 0009792,-0.00000516,0.00003177,0.00002669,0.00004757,-0.00000170,0.027
 12992,-0.00562747,0.00716170,-0.11409320,0.05143987,0.00013543,-0.0002
 2627,0.00011399,-0.13047734,0.06403751,-0.09692794,0.00662312,-0.00138
 782,-0.00473542,0.00013154,0.00037997,-0.00023419,0.00065381,0.0007445
 4,-0.00056833,-0.00001179,0.00002354,0.00005019,-0.00005724,0.00007061
 ,-0.00003708,-0.03342496,0.00396903,-0.00856213,0.16233709,-0.06854408
 ,0.10155164,-0.00344954,0.00457458,-0.00599105,0.00178501,-0.00003100,
 -0.00126147,-0.18026969,-0.12504997,0.03150564,0.00111493,0.00550053,-
 0.00301194,0.00025241,0.00014494,-0.00065968,0.00069141,0.00004642,-0.
 00090701,-0.00051802,0.00002048,0.00075362,0.00008960,-0.00020754,0.00
 082545,-0.00009613,0.00045916,-0.00019414,0.17581287,-0.00091408,0.002
 48560,-0.00299609,0.00697240,-0.00387348,-0.00410726,-0.13045081,-0.21
 736345,0.04902249,0.00345144,-0.00562077,-0.00226091,0.00029593,0.0001
 1192,-0.00074590,0.00051824,-0.00004317,-0.00028340,-0.00049638,0.0002
 0602,0.00089307,-0.00009271,-0.00032236,0.00095547,0.00020841,0.000493
 18,-0.00110108,0.12462455,0.20880053,-0.00080671,0.00015696,-0.0001382
 7,-0.00073042,-0.00000461,0.00066767,0.01247001,0.02608154,-0.03175202
 ,-0.00390674,-0.00436407,-0.02003796,-0.00020954,-0.00017050,0.0002977
 5,-0.00053297,0.00003189,-0.00015310,0.00025976,-0.00006721,-0.0001902
 4,-0.00003882,0.00021723,-0.00026218,0.00007614,-0.00053704,0.00019006
 ,-0.03040755,-0.04198988,0.05555017,-0.01756431,0.00329791,0.00456559,
 0.00143131,-0.00155312,0.00068059,-0.10783839,0.06341633,-0.05779005,-
 0.00394237,-0.00262055,-0.00035592,-0.00146676,0.00086739,-0.00016059,
 -0.00190625,0.00024837,-0.00112821,0.00591028,-0.00647717,0.00525822,-
 0.00072811,-0.00000385,0.00155129,0.00003840,-0.00004227,-0.00047549,0
 .02098367,-0.00829143,0.01566107,0.11544887,0.00345048,0.00018770,-0.0
 1560103,-0.00492830,0.00017335,0.00347865,0.05132290,-0.13558721,0.106
 50078,0.00201908,0.00243662,-0.00115992,0.00307867,-0.00226624,-0.0004
 2646,0.00240041,-0.00370753,-0.00102876,-0.00829307,0.00408893,0.00130
 564,-0.00066537,0.00227086,-0.00189326,-0.00011633,-0.00012693,0.00054
 370,0.00402780,-0.01567329,0.01322489,-0.06671209,0.15507303,0.0046655
 3,-0.01075800,-0.00711670,0.00465196,0.00064006,-0.00621323,-0.0625887
 0,0.13204116,-0.15679834,-0.00324599,-0.00350956,0.00084082,-0.0033676
 0,0.00166903,0.00032228,-0.00281528,-0.00080128,0.01046825,0.00577821,
 -0.00246160,-0.00385045,0.00206452,-0.00223936,0.00179348,0.00000707,0
 .00015687,-0.00023634,0.00783712,0.00269195,-0.00371093,0.05299492,-0.
 10620151,0.14501239,-0.00004941,0.00002176,0.00004091,-0.00013937,0.00
 010640,-0.00007527,-0.00125890,-0.00232266,0.00010099,-0.10141453,-0.0
 4092008,0.19100283,-0.00004033,0.00003552,-0.00001792,0.00004819,0.000
 00960,-0.00001344,0.00003971,-0.00001012,-0.00001807,0.00002173,-0.000
 04493,0.00004300,-0.00003034,-0.00005527,0.00010511,0.00102788,0.00474
 260,0.00222814,-0.00017111,-0.00027106,-0.00019239,0.09407284,0.000189
 23,-0.00014943,-0.00000148,-0.00000038,-0.00003438,0.00003561,-0.00312
 051,-0.00407014,-0.00008807,-0.04652258,-0.02748294,0.05427303,0.00004
 351,-0.00004367,-0.00000472,-0.00007342,-0.00002230,0.00011008,-0.0000
 6473,0.00003123,0.00003389,-0.00000678,0.00003568,-0.00002791,0.000002
 92,0.00004726,-0.00000149,0.00386617,0.00639208,0.00420468,-0.00034598
 ,0.00037130,-0.00013760,0.03817322,0.02318253,-0.00002265,-0.00022518,
 0.00021308,-0.00032755,0.00003826,0.00012300,-0.00237950,-0.00236775,0
 .00058774,0.14273610,0.02564118,-0.44417589,-0.00007689,-0.00004462,0.
 00005501,-0.00000051,0.00005941,0.00003594,0.00009083,-0.00000516,-0.0
 0006081,0.00001130,0.00004457,-0.00005412,0.00003276,-0.00001097,0.000
 08662,0.00388716,0.00412117,-0.00114054,-0.00005698,0.00040558,-0.0003
 4952,-0.16245336,-0.03528068,0.46711467,-0.00011275,0.00003768,0.00005
 832,-0.00000065,0.00022511,0.00003319,0.00020682,-0.00110901,0.0010476
 8,-0.21857940,-0.17437083,-0.19803461,-0.00003840,0.00010511,-0.000039
 01,0.00008514,0.00001389,0.00001015,0.00005814,-0.00006287,-0.00002870
 ,0.00001056,-0.00010598,0.00008369,-0.00004626,-0.00004672,-0.00000780
 ,-0.00118409,0.00227826,-0.00248419,-0.00031905,-0.00032196,-0.0001179
 3,0.00740749,0.00797527,0.01781905,0.21235144,0.00037705,-0.00001664,0
 .00002228,0.00005931,-0.00009147,0.00000467,-0.00147648,-0.00185471,0.
 00177668,-0.16507274,-0.13380159,-0.15562222,0.00013419,-0.00005083,-0
 .00003526,-0.00007114,-0.00008250,0.00005148,-0.00016974,0.00005766,0.
 00010068,-0.00004881,0.00004761,-0.00003290,-0.00001170,0.00006617,0.0
 0000940,0.00113754,0.00173843,-0.00501348,-0.00092030,-0.00018977,-0.0
 0032148,0.00060416,0.00189567,0.00769767,0.16576870,0.13252639,-0.0002
 5813,0.00018994,-0.00059516,0.00031213,-0.00018980,-0.00045019,0.00356
 707,0.00432827,-0.00292150,-0.15021894,-0.12607954,-0.22151790,-0.0000
 6338,-0.00004591,-0.00009464,0.00002647,0.00002791,0.00001575,0.000005
 87,0.00007398,0.00008669,0.00007644,-0.00001266,0.00014106,0.00000166,
 0.00000062,0.00001800,-0.00477636,-0.00666694,0.00562306,0.00082255,-0
 .00043458,0.00101713,-0.03081137,-0.02296981,-0.02223725,0.18196624,0.
 15110109,0.24027552,-0.00212025,-0.00030824,-0.00029645,-0.00028498,0.
 00019199,0.00047765,-0.00041289,0.00014237,-0.00007046,-0.00005254,-0.
 00000784,-0.00007142,-0.03270391,-0.03645110,-0.02866202,-0.00013356,-
 0.00001202,0.00012446,0.00369200,0.00123711,0.00211928,0.00015057,-0.0
 0035483,-0.00126765,-0.00002778,-0.00007161,-0.00016287,0.00007133,0.0
 0008042,0.00004756,0.00020646,-0.00016345,0.00031313,0.00000907,-0.000
 00791,0.00002286,0.00000429,-0.00003428,0.00007195,0.03531148,-0.00041
 787,-0.00021430,0.00077747,0.00000199,-0.00216776,0.00050329,0.0000997
 0,-0.00040294,0.00013110,-0.00001891,-0.00011117,-0.00005369,-0.046246
 87,-0.10526832,-0.14729213,0.00000279,-0.00008619,-0.00012140,0.000802
 89,-0.00012152,-0.00157310,0.00007415,0.00410953,0.00044181,-0.0000483
 3,-0.00007003,0.00013020,0.00012219,0.00017982,0.00001333,-0.00005623,
 0.00056615,-0.00041871,-0.00000891,0.00001366,0.00001297,-0.00004206,0
 .00002560,0.00007068,0.04972678,0.11699602,-0.00062412,-0.00012142,0.0
 0087500,-0.00033699,0.00006214,0.00103048,-0.00025948,-0.00008701,0.00
 028275,-0.00010192,-0.00010887,0.00005964,-0.06514683,-0.19194945,-0.4
 2686315,0.00022307,-0.00001132,0.00009678,0.00075587,-0.00044580,-0.00
 212381,0.00001054,-0.00080164,-0.00285275,-0.00006982,0.00024613,-0.00
 003112,0.00021644,0.00022676,-0.00014674,-0.00006820,0.00011245,-0.000
 23749,0.00000520,0.00000147,-0.00002421,0.00002901,0.00002271,0.000009
 87,0.05692722,0.18266463,0.42781814,0.00007528,0.00133571,-0.00030799,
 -0.00060366,0.00078189,-0.00145712,-0.00010920,0.00030006,-0.00023691,
 0.00003042,0.00008301,-0.00005230,-0.21700168,-0.24566679,0.03493832,-
 0.00044351,-0.00006041,0.00039986,-0.00119720,-0.00283065,0.00027251,0
 .00145160,-0.00053761,0.00218784,0.00020307,0.00025386,-0.00026253,-0.
 00011342,-0.00013033,0.00007435,0.00015035,-0.00046360,0.00048040,0.00
 000874,-0.00000867,0.00002560,0.00000108,-0.00002446,0.00001067,-0.004
 32934,-0.00389990,0.00805539,0.22175506,0.00137876,-0.00077139,-0.0013
 4291,0.00098107,0.00045187,-0.00058483,0.00033075,-0.00005943,-0.00021
 064,0.00007140,0.00004418,-0.00005540,-0.23583556,-0.28908834,0.029054
 73,0.00032974,0.00021579,-0.00020210,-0.00171240,0.00183455,0.00194460
 ,-0.00175872,-0.00176327,0.00081205,-0.00003435,-0.00017780,0.00037216
 ,-0.00012426,-0.00012814,0.00008327,-0.00002227,0.00004800,0.00008724,
 -0.00000763,0.00001080,0.00002563,-0.00002302,-0.00000102,0.00001195,-
 0.01393487,-0.01364879,0.01034047,0.25091585,0.30286916,0.00029184,-0.
 00090481,-0.00061647,-0.00117215,0.00007458,-0.00114395,-0.00011416,-0
 .00006185,-0.00011272,-0.00003873,-0.00004305,-0.00001153,0.07156353,0
 .07383847,-0.05908857,0.00039842,0.00007508,-0.00002135,-0.00038546,0.
 00189798,0.00076723,0.00253256,0.00048701,0.00167402,0.00007879,0.0005
 0071,-0.00026359,0.00007310,0.00008336,-0.00002339,0.00006154,0.000071
 09,0.00023732,0.00000704,0.00000621,0.00000464,0.00000148,0.00000052,0
 .00002129,-0.02933653,-0.03539810,0.00239679,-0.04411192,-0.04070991,0
 .05602855,-0.00003533,-0.00480935,0.00614666,0.00499096,0.00247074,-0.
 01371710,-0.21380671,0.07097352,0.08461700,0.00272638,0.00435293,-0.00
 151525,-0.00315273,0.00315201,-0.00198647,-0.00027294,0.00001448,0.000
 61482,0.00344605,-0.00092787,-0.00159646,0.00661092,-0.00850204,0.0049
 4094,-0.00275535,0.00184089,-0.00491196,-0.01619821,-0.00279652,0.0082
 9990,-0.01023298,0.01563588,-0.00646495,0.00046835,-0.00009935,0.00069
 179,0.00015565,-0.00025130,-0.00073285,0.00062005,-0.00009141,0.000384
 63,0.00012241,-0.00055452,0.00015064,0.22731346,-0.00146994,0.00099119
 ,-0.00055738,0.00346107,-0.01445154,0.00392523,0.08808339,-0.10009750,
 -0.02213867,-0.00191154,-0.00462808,0.00036231,0.00094517,-0.00126975,
 0.00032730,0.00005937,-0.00008003,-0.00036732,-0.00030095,-0.00008495,
 0.00150490,-0.00757146,0.00463146,0.00176266,-0.00053600,-0.00185004,0
 .00098008,-0.01911159,0.02261706,0.00813299,0.01921527,-0.00766498,-0.
 01043722,-0.00005263,-0.00017735,-0.00011208,-0.00032158,-0.00026899,0
 .00059480,-0.00003254,0.00020026,-0.00015126,-0.00004796,0.00016383,0.
 00008272,-0.08040808,0.10196939,0.00183789,0.00198273,-0.00558120,-0.0
 0899294,0.00467739,-0.01525045,0.10736360,-0.02537732,-0.08337041,-0.0
 0140609,-0.00234741,0.00058265,0.00114838,-0.00183833,0.00096635,0.000
 13706,0.00000952,0.00004513,-0.00213873,0.00176602,0.00002970,0.000794
 37,0.00125705,-0.00486821,-0.00383168,-0.00005076,0.00958563,0.0021106
 6,0.00215719,-0.00477332,-0.02156031,0.00110274,0.01882135,0.00004859,
 -0.00015321,-0.00017835,-0.00033658,0.00023815,0.00060826,-0.00023671,
 0.00011163,-0.00029016,-0.00001617,0.00037368,0.00015172,-0.07492134,0
 .01609094,0.08352131\\0.00000460,-0.00001937,-0.00000444,-0.00002016,0
 .00000392,-0.00000704,0.00004125,-0.00001086,-0.00002933,0.00003646,-0
 .00002043,0.00000560,0.00000820,0.00001075,-0.00000551,0.00000566,0.00
 000687,-0.00000813,-0.00001770,0.00001228,0.00002119,0.00000965,-0.000
 01277,0.00002465,0.00000799,0.00000466,-0.00000882,-0.00005909,0.00005
 282,0.00003535,-0.00000585,-0.00000924,-0.00000420,-0.00001037,-0.0000
 1003,-0.00001097,0.00000012,0.00000911,-0.00000155,0.00000782,0.000010
 91,0.00000768,-0.00000658,-0.00001372,-0.00001746,-0.00000201,-0.00001
 491,0.00000298\\\@


 "A LITTLE BIT GOES A LONG WAY"
 R.S. MULLIKEN AS QUOTED BY K. RUEDENBERG
 Job cpu time:  0 days  4 hours 35 minutes 20.9 seconds.
 File lengths (MBytes):  RWF=   9090 Int=      0 D2E=      0 Chk=     10 Scr=      1
 Normal termination of Gaussian 03 at Tue May 11 00:52:21 2010.
