 Entering Gaussian System, Link 0=g03
 Initial command:
 /lustre/lwork/chinh/g03-em64t/g03/l1.exe /lustre/lwork/chinh/tmp/NQC-pW-5-6.xyz.1.com/Gau-17807.inp -scrdir=/lustre/lwork/chinh/tmp/NQC-pW-5-6.xyz.1.com/
 Entering Link 1 = /lustre/lwork/chinh/g03-em64t/g03/l1.exe PID=     17809.
  
 Copyright (c) 1988,1990,1992,1993,1995,1998,2003,2004, Gaussian, Inc.
                  All Rights Reserved.
  
 This is the Gaussian(R) 03 program.  It is based on the
 the Gaussian(R) 98 system (copyright 1998, Gaussian, Inc.),
 the Gaussian(R) 94 system (copyright 1995, Gaussian, Inc.),
 the Gaussian 92(TM) system (copyright 1992, Gaussian, Inc.),
 the Gaussian 90(TM) system (copyright 1990, Gaussian, Inc.),
 the Gaussian 88(TM) system (copyright 1988, Gaussian, Inc.),
 the Gaussian 86(TM) system (copyright 1986, Carnegie Mellon
 University), and the Gaussian 82(TM) system (copyright 1983,
 Carnegie Mellon University). Gaussian is a federally registered
 trademark of Gaussian, Inc.
  
 This software contains proprietary and confidential information,
 including trade secrets, belonging to Gaussian, Inc.
  
 This software is provided under written license and may be
 used, copied, transmitted, or stored only in accord with that
 written license.
  
 The following legend is applicable only to US Government
 contracts under FAR:
  
                    RESTRICTED RIGHTS LEGEND
  
 Use, reproduction and disclosure by the US Government is
 subject to restrictions as set forth in subparagraphs (a)
 and (c) of the Commercial Computer Software - Restricted
 Rights clause in FAR 52.227-19.
  
 Gaussian, Inc.
 340 Quinnipiac St., Bldg. 40, Wallingford CT 06492
  
  
 ---------------------------------------------------------------
 Warning -- This program may not be used in any manner that
 competes with the business of Gaussian, Inc. or will provide
 assistance to any competitor of Gaussian, Inc.  The licensee
 of this program is prohibited from giving any competitor of
 Gaussian, Inc. access to this program.  By using this program,
 the user acknowledges that Gaussian, Inc. is engaged in the
 business of creating and licensing software in the field of
 computational chemistry and represents and warrants to the
 licensee that it is not a competitor of Gaussian, Inc. and that
 it will not use this program in any manner prohibited above.
 ---------------------------------------------------------------
  

 Cite this work as:
 Gaussian 03, Revision D.01,
 M. J. Frisch, G. W. Trucks, H. B. Schlegel, G. E. Scuseria, 
 M. A. Robb, J. R. Cheeseman, J. A. Montgomery, Jr., T. Vreven, 
 K. N. Kudin, J. C. Burant, J. M. Millam, S. S. Iyengar, J. Tomasi, 
 V. Barone, B. Mennucci, M. Cossi, G. Scalmani, N. Rega, 
 G. A. Petersson, H. Nakatsuji, M. Hada, M. Ehara, K. Toyota, 
 R. Fukuda, J. Hasegawa, M. Ishida, T. Nakajima, Y. Honda, O. Kitao, 
 H. Nakai, M. Klene, X. Li, J. E. Knox, H. P. Hratchian, J. B. Cross, 
 V. Bakken, C. Adamo, J. Jaramillo, R. Gomperts, R. E. Stratmann, 
 O. Yazyev, A. J. Austin, R. Cammi, C. Pomelli, J. W. Ochterski, 
 P. Y. Ayala, K. Morokuma, G. A. Voth, P. Salvador, J. J. Dannenberg, 
 V. G. Zakrzewski, S. Dapprich, A. D. Daniels, M. C. Strain, 
 O. Farkas, D. K. Malick, A. D. Rabuck, K. Raghavachari, 
 J. B. Foresman, J. V. Ortiz, Q. Cui, A. G. Baboul, S. Clifford, 
 J. Cioslowski, B. B. Stefanov, G. Liu, A. Liashenko, P. Piskorz, 
 I. Komaromi, R. L. Martin, D. J. Fox, T. Keith, M. A. Al-Laham, 
 C. Y. Peng, A. Nanayakkara, M. Challacombe, P. M. W. Gill, 
 B. Johnson, W. Chen, M. W. Wong, C. Gonzalez, and J. A. Pople, 
 Gaussian, Inc., Wallingford CT, 2004.
 
 ******************************************
 Gaussian 03:  AM64L-G03RevD.01 13-Oct-2005
                10-May-2010 
 ******************************************
 %chk=pW-5-6.xyz.1.chk
 %nproc=4
 Will use up to    4 processors via shared memory.
 %mem=2GB
 -----------------------------------------
 #opt=(maxcycles=200) freq mp2/aug-cc-pvDZ
 -----------------------------------------
 1/6=200,18=20,38=1/1,3;
 2/9=110,17=6,18=5,40=1/2;
 3/5=16,7=10,11=9,16=1,25=1,30=1/1,2,3;
 4//1;
 5/5=2,38=5/2;
 8/6=4,10=1/1;
 9/15=2,16=-3/6;
 10/5=1/2;
 6/7=2,8=2,9=2,10=2/1;
 7/12=2/1,2,3,16;
 1/6=200,18=20/3(3);
 2/9=110/2;
 6/7=2,8=2,9=2,10=2/1;
 99//99;
 2/9=110/2;
 3/5=16,7=10,11=9,16=1,25=1,30=1/1,2,3;
 4/5=5,16=3/1;
 5/5=2,38=5/2;
 8/6=4,10=1/1;
 9/15=2,16=-3/6;
 10/5=1/2;
 7/12=2/1,2,3,16;
 1/6=200,18=20/3(-8);
 2/9=110/2;
 6/7=2,8=2,9=2,10=2/1;
 99//99;
 -----
 Str 5
 -----
 Symbolic Z-matrix:
 Charge =  1 Multiplicity = 1
 O                    -1.60877   1.10307   0.54838 
 O                     1.50035  -1.01106  -0.5672 
 O                     4.13136  -1.21303  -0.74875 
 O                    -4.29343   0.95206   0.85023 
 O                     0.4001   -0.50464   1.70942 
 O                    -0.05463   0.66808  -1.77007 
 H                    -0.45686  -0.01937   1.54911 
 H                    -1.46244   2.02608   0.84344 
 H                     0.97432  -0.38319  -1.15156 
 H                     1.1773   -0.89824   0.38122 
 H                     4.45899  -1.88906  -1.37044 
 H                     4.70687  -0.42792  -0.80099 
 H                    -4.90042   0.94322   0.08949 
 H                    -4.70326   0.44633   1.57382 
 H                     2.48063  -0.96458  -0.67993 
 H                    -0.80628   0.89669  -1.15389 
 H                    -2.61491   0.92544   0.61936 
 H                    -0.36238   0.57262  -2.68046 
 H                     0.31846  -1.14046   2.43154 
 

 GradGradGradGradGradGradGradGradGradGradGradGradGradGradGradGradGradGrad
 Berny optimization.
 Initialization pass.
                           ----------------------------
                           !    Initial Parameters    !
                           ! (Angstroms and Degrees)  !
 --------------------------                            --------------------------
 ! Name  Definition              Value          Derivative Info.                !
 --------------------------------------------------------------------------------
 ! R1    R(1,7)                  1.8943         estimate D2E/DX2                !
 ! R2    R(1,8)                  0.98           estimate D2E/DX2                !
 ! R3    R(1,16)                 1.8932         estimate D2E/DX2                !
 ! R4    R(1,17)                 1.0242         estimate D2E/DX2                !
 ! R5    R(2,9)                  1.0062         estimate D2E/DX2                !
 ! R6    R(2,10)                 1.0083         estimate D2E/DX2                !
 ! R7    R(2,15)                 0.9878         estimate D2E/DX2                !
 ! R8    R(3,11)                 0.9751         estimate D2E/DX2                !
 ! R9    R(3,12)                 0.9749         estimate D2E/DX2                !
 ! R10   R(3,15)                 1.6707         estimate D2E/DX2                !
 ! R11   R(4,13)                 0.9733         estimate D2E/DX2                !
 ! R12   R(4,14)                 0.9733         estimate D2E/DX2                !
 ! R13   R(4,17)                 1.6945         estimate D2E/DX2                !
 ! R14   R(5,7)                  0.9978         estimate D2E/DX2                !
 ! R15   R(5,10)                 1.5884         estimate D2E/DX2                !
 ! R16   R(5,19)                 0.9656         estimate D2E/DX2                !
 ! R17   R(6,9)                  1.5958         estimate D2E/DX2                !
 ! R18   R(6,16)                 0.9985         estimate D2E/DX2                !
 ! R19   R(6,18)                 0.9657         estimate D2E/DX2                !
 ! A1    A(7,1,8)              107.9525         estimate D2E/DX2                !
 ! A2    A(7,1,16)              98.7809         estimate D2E/DX2                !
 ! A3    A(7,1,17)             117.2592         estimate D2E/DX2                !
 ! A4    A(8,1,16)             108.0647         estimate D2E/DX2                !
 ! A5    A(8,1,17)             106.8085         estimate D2E/DX2                !
 ! A6    A(16,1,17)            117.3756         estimate D2E/DX2                !
 ! A7    A(9,2,10)             107.9969         estimate D2E/DX2                !
 ! A8    A(9,2,15)             115.0349         estimate D2E/DX2                !
 ! A9    A(10,2,15)            114.8366         estimate D2E/DX2                !
 ! A10   A(11,3,12)            109.0152         estimate D2E/DX2                !
 ! A11   A(11,3,15)            117.4721         estimate D2E/DX2                !
 ! A12   A(12,3,15)            117.7574         estimate D2E/DX2                !
 ! A13   A(13,4,14)            108.287          estimate D2E/DX2                !
 ! A14   A(13,4,17)            120.7396         estimate D2E/DX2                !
 ! A15   A(14,4,17)            120.6789         estimate D2E/DX2                !
 ! A16   A(7,5,10)             113.9794         estimate D2E/DX2                !
 ! A17   A(7,5,19)             111.5793         estimate D2E/DX2                !
 ! A18   A(10,5,19)            120.2335         estimate D2E/DX2                !
 ! A19   A(9,6,16)             113.394          estimate D2E/DX2                !
 ! A20   A(9,6,18)             120.3809         estimate D2E/DX2                !
 ! A21   A(16,6,18)            111.3764         estimate D2E/DX2                !
 ! A22   A(1,7,5)              153.5525         estimate D2E/DX2                !
 ! A23   A(2,9,6)              166.7293         estimate D2E/DX2                !
 ! A24   A(2,10,5)             166.1788         estimate D2E/DX2                !
 ! A25   A(2,15,3)             168.0066         estimate D2E/DX2                !
 ! A26   A(1,16,6)             154.0193         estimate D2E/DX2                !
 ! A27   A(1,17,4)             168.4749         estimate D2E/DX2                !
 ! D1    D(8,1,7,5)            -90.7407         estimate D2E/DX2                !
 ! D2    D(16,1,7,5)            21.5851         estimate D2E/DX2                !
 ! D3    D(17,1,7,5)           148.6694         estimate D2E/DX2                !
 ! D4    D(7,1,16,6)           -20.8218         estimate D2E/DX2                !
 ! D5    D(8,1,16,6)            91.4151         estimate D2E/DX2                !
 ! D6    D(17,1,16,6)         -147.8265         estimate D2E/DX2                !
 ! D7    D(7,1,17,4)           120.7863         estimate D2E/DX2                !
 ! D8    D(8,1,17,4)            -0.4021         estimate D2E/DX2                !
 ! D9    D(16,1,17,4)         -121.8149         estimate D2E/DX2                !
 ! D10   D(10,2,9,6)            -7.5392         estimate D2E/DX2                !
 ! D11   D(15,2,9,6)          -137.2684         estimate D2E/DX2                !
 ! D12   D(9,2,10,5)             8.2917         estimate D2E/DX2                !
 ! D13   D(15,2,10,5)          138.1316         estimate D2E/DX2                !
 ! D14   D(9,2,15,3)          -155.6152         estimate D2E/DX2                !
 ! D15   D(10,2,15,3)           78.091          estimate D2E/DX2                !
 ! D16   D(11,3,15,2)           65.0774         estimate D2E/DX2                !
 ! D17   D(12,3,15,2)         -161.4012         estimate D2E/DX2                !
 ! D18   D(13,4,17,1)          110.1886         estimate D2E/DX2                !
 ! D19   D(14,4,17,1)         -108.7988         estimate D2E/DX2                !
 ! D20   D(10,5,7,1)           -27.4101         estimate D2E/DX2                !
 ! D21   D(19,5,7,1)          -167.6337         estimate D2E/DX2                !
 ! D22   D(7,5,10,2)             7.966          estimate D2E/DX2                !
 ! D23   D(19,5,10,2)          144.4454         estimate D2E/DX2                !
 ! D24   D(16,6,9,2)            -8.418          estimate D2E/DX2                !
 ! D25   D(18,6,9,2)          -143.9772         estimate D2E/DX2                !
 ! D26   D(9,6,16,1)            26.3452         estimate D2E/DX2                !
 ! D27   D(18,6,16,1)          165.9054         estimate D2E/DX2                !
 --------------------------------------------------------------------------------
 Trust Radius=3.00D-01 FncErr=1.00D-07 GrdErr=1.00D-07
 Number of steps in this run= 114 maximum allowed number of steps= 114.
 GradGradGradGradGradGradGradGradGradGradGradGradGradGradGradGradGradGrad

                          Input orientation:                          
 ---------------------------------------------------------------------
 Center     Atomic     Atomic              Coordinates (Angstroms)
 Number     Number      Type              X           Y           Z
 ---------------------------------------------------------------------
    1          8             0       -1.608772    1.103071    0.548379
    2          8             0        1.500352   -1.011058   -0.567203
    3          8             0        4.131360   -1.213032   -0.748745
    4          8             0       -4.293430    0.952058    0.850226
    5          8             0        0.400097   -0.504637    1.709421
    6          8             0       -0.054626    0.668081   -1.770068
    7          1             0       -0.456863   -0.019370    1.549112
    8          1             0       -1.462443    2.026082    0.843436
    9          1             0        0.974318   -0.383186   -1.151559
   10          1             0        1.177301   -0.898240    0.381221
   11          1             0        4.458986   -1.889057   -1.370440
   12          1             0        4.706868   -0.427923   -0.800991
   13          1             0       -4.900418    0.943220    0.089489
   14          1             0       -4.703264    0.446335    1.573821
   15          1             0        2.480634   -0.964583   -0.679931
   16          1             0       -0.806283    0.896686   -1.153888
   17          1             0       -2.614911    0.925438    0.619357
   18          1             0       -0.362381    0.572619   -2.680456
   19          1             0        0.318462   -1.140463    2.431538
 ---------------------------------------------------------------------
                    Distance matrix (angstroms):
                    1          2          3          4          5
     1  O    0.000000
     2  O    3.921825   0.000000
     3  O    6.324237   2.644987   0.000000
     4  O    2.705791   6.279398   8.844287   0.000000
     5  O    2.822817   2.578767   4.524017   4.988924   0.000000
     6  O    2.824851   2.585410   4.701507   4.991397   3.699849
     7  H    1.894263   3.048430   5.268470   4.018875   0.997779
     8  H    0.980011   4.471272   6.657142   3.027881   3.259374
     9  H    3.430904   1.006184   3.289045   5.791303   2.920563
    10  H    3.434441   1.008265   3.178425   5.794175   1.588422
    11  H    7.032239   3.188979   0.975117   9.466154   5.279843
    12  H    6.637171   3.267483   0.974851   9.253984   4.985612
    13  H    3.327322   6.724604   9.323362   0.973259   5.728519
    14  H    3.325464   6.722561   9.284309   0.973298   5.192978
    15  H    4.744173   0.987836   1.670736   7.204362   3.201435
    16  H    1.893223   3.050287   5.384735   4.022404   3.408459
    17  H    1.024162   4.700354   7.208115   1.694531   3.510502
    18  H    3.501464   3.231663   5.207088   5.297437   4.583980
    19  H    3.506275   3.225842   4.965648   5.305538   0.965605
                    6          7          8          9         10
     6  O    0.000000
     7  H    3.413406   0.000000
     8  H    3.264433   2.386010   0.000000
     9  H    1.595757   3.078030   3.965146   0.000000
    10  H    2.932413   2.192458   3.966554   1.629692   0.000000
    11  H    5.203014   6.015404   7.435919   3.802429   3.849610
    12  H    4.981180   5.688059   6.840079   3.749243   3.751888
    13  H    5.197630   4.775171   3.682486   6.149153   6.357260
    14  H    5.730672   4.271933   3.678584   6.352223   6.149082
    15  H    3.206482   3.806698   5.178086   1.682094   1.681999
    16  H    0.998463   2.875319   2.386500   2.192856   3.084302
    17  H    3.511502   2.532642   1.609289   4.210844   4.214662
    18  H    0.965729   4.271841   3.967431   2.244516   3.729331
    19  H    4.589501   1.623778   3.964934   3.720511   2.236085
                   11         12         13         14         15
    11  H    0.000000
    12  H    1.587650   0.000000
    13  H    9.886943   9.745406   0.000000
    14  H    9.903007   9.744467   1.577658   0.000000
    15  H    2.290269   2.293202   7.662353   7.660187   0.000000
    16  H    5.960732   5.681017   4.279030   4.778040   3.806938
    17  H    7.868970   7.580067   2.346193   2.345583   5.587925
    18  H    5.569701   5.498250   5.329515   6.079316   3.801029
    19  H    5.670923   5.496823   6.087991   5.335853   3.793041
                   16         17         18         19
    16  H    0.000000
    17  H    2.533053   0.000000
    18  H    1.622492   4.010878   0.000000
    19  H    4.274378   4.019530   5.434214   0.000000
 Stoichiometry    H13O6(1+)
 Framework group  C1[X(H13O6)]
 Deg. of freedom    51
 Full point group                 C1
 Largest Abelian subgroup         C1      NOp   1
 Largest concise Abelian subgroup C1      NOp   1
                         Standard orientation:                         
 ---------------------------------------------------------------------
 Center     Atomic     Atomic              Coordinates (Angstroms)
 Number     Number      Type              X           Y           Z
 ---------------------------------------------------------------------
    1          8             0       -1.922826   -0.007452    0.615494
    2          8             0        1.816201    0.057495   -0.566103
    3          8             0        4.377081   -0.116911    0.072202
    4          8             0       -4.457820   -0.050147   -0.329647
    5          8             0        0.185452   -1.818260    0.121095
    6          8             0        0.121633    1.881022    0.132135
    7          1             0       -0.723927   -1.424336    0.236926
    8          1             0       -2.106734   -0.016405    1.578052
    9          1             0        1.261427    0.860536   -0.321647
   10          1             0        1.291603   -0.768875   -0.324222
   11          1             0        5.000598    0.226012   -0.594494
   12          1             0        4.704235    0.113368    0.961177
   13          1             0       -4.872419    0.731260   -0.735534
   14          1             0       -4.843182   -0.846127   -0.736120
   15          1             0        2.744797    0.072776   -0.229508
   16          1             0       -0.771349    1.450557    0.251343
   17          1             0       -2.830074   -0.021082    0.140496
   18          1             0        0.042160    2.744783   -0.292405
   19          1             0        0.145103   -2.688456   -0.295468
 ---------------------------------------------------------------------
 Rotational constants (GHZ):      3.3587155      0.5771733      0.5114498
 Standard basis: Aug-CC-pVDZ (5D, 7F)
 There are   255 symmetry adapted basis functions of A   symmetry.
 Integral buffers will be    131072 words long.
 Raffenetti 1 integral format.
 Two-electron integral symmetry is turned on.
   255 basis functions,   401 primitive gaussians,   267 cartesian basis functions
    30 alpha electrons       30 beta electrons
       nuclear repulsion energy       276.5174030952 Hartrees.
 NAtoms=   19 NActive=   19 NUniq=   19 SFac= 7.50D-01 NAtFMM=   80 NAOKFM=F Big=F
 One-electron integrals computed using PRISM.
 NBasis=   255 RedAO= T  NBF=   255
 NBsUse=   255 1.00D-06 NBFU=   255
 Harris functional with IExCor=  205 diagonalized for initial guess.
 ExpMin= 2.97D-02 ExpMax= 1.17D+04 ExpMxC= 4.01D+02 IAcc=3 IRadAn=         5 AccDes= 0.00D+00
 HarFok:  IExCor= 205 AccDes= 0.00D+00 IRadAn=         5 IDoV=1
 ScaDFX=  1.000000  1.000000  1.000000  1.000000
 Initial guess orbital symmetries:
       Occupied  (A) (A) (A) (A) (A) (A) (A) (A) (A) (A) (A) (A)
                 (A) (A) (A) (A) (A) (A) (A) (A) (A) (A) (A) (A)
                 (A) (A) (A) (A) (A) (A)
       Virtual   (A) (A) (A) (A) (A) (A) (A) (A) (A) (A) (A) (A)
                 (A) (A) (A) (A) (A) (A) (A) (A) (A) (A) (A) (A)
                 (A) (A) (A) (A) (A) (A) (A) (A) (A) (A) (A) (A)
                 (A) (A) (A) (A) (A) (A) (A) (A) (A) (A) (A) (A)
                 (A) (A) (A) (A) (A) (A) (A) (A) (A) (A) (A) (A)
                 (A) (A) (A) (A) (A) (A) (A) (A) (A) (A) (A) (A)
                 (A) (A) (A) (A) (A) (A) (A) (A) (A) (A) (A) (A)
                 (A) (A) (A) (A) (A) (A) (A) (A) (A) (A) (A) (A)
                 (A) (A) (A) (A) (A) (A) (A) (A) (A) (A) (A) (A)
                 (A) (A) (A) (A) (A) (A) (A) (A) (A) (A) (A) (A)
                 (A) (A) (A) (A) (A) (A) (A) (A) (A) (A) (A) (A)
                 (A) (A) (A) (A) (A) (A) (A) (A) (A) (A) (A) (A)
                 (A) (A) (A) (A) (A) (A) (A) (A) (A) (A) (A) (A)
                 (A) (A) (A) (A) (A) (A) (A) (A) (A) (A) (A) (A)
                 (A) (A) (A) (A) (A) (A) (A) (A) (A) (A) (A) (A)
                 (A) (A) (A) (A) (A) (A) (A) (A) (A) (A) (A) (A)
                 (A) (A) (A) (A) (A) (A) (A) (A) (A) (A) (A) (A)
                 (A) (A) (A) (A) (A) (A) (A) (A) (A) (A) (A) (A)
                 (A) (A) (A) (A) (A) (A) (A) (A) (A)
 The electronic state of the initial guess is 1-A.
 Requested convergence on RMS density matrix=1.00D-08 within 128 cycles.
 Requested convergence on MAX density matrix=1.00D-06.
 Requested convergence on             energy=1.00D-06.
 No special actions if energy rises.
 SCF Done:  E(RHF) =  -456.655420193     A.U. after   11 cycles
             Convg  =    0.7923D-08             -V/T =  2.0022
             S**2   =   0.0000
 ExpMin= 2.97D-02 ExpMax= 1.17D+04 ExpMxC= 4.01D+02 IAcc=3 IRadAn=         5 AccDes= 0.00D+00
 HarFok:  IExCor= 205 AccDes= 0.00D+00 IRadAn=         5 IDoV=1
 ScaDFX=  1.000000  1.000000  1.000000  1.000000
 Range of M.O.s used for correlation:     7   255
 NBasis=   255 NAE=    30 NBE=    30 NFC=     6 NFV=     0
 NROrb=    249 NOA=    24 NOB=    24 NVA=   225 NVB=   225

 **** Warning!!: The largest alpha MO coefficient is  0.11646845D+02

 Fully direct method using O(ONN) memory.
 JobTyp=1 Pass  1:  I=   7 to  10 NPSUse=  4 ParTrn=T ParDer=T DoDerP=T.
 JobTyp=1 Pass  2:  I=  11 to  14 NPSUse=  4 ParTrn=T ParDer=T DoDerP=T.
 JobTyp=1 Pass  3:  I=  15 to  18 NPSUse=  4 ParTrn=T ParDer=T DoDerP=T.
 JobTyp=1 Pass  4:  I=  19 to  22 NPSUse=  4 ParTrn=T ParDer=T DoDerP=T.
 JobTyp=1 Pass  5:  I=  23 to  26 NPSUse=  4 ParTrn=T ParDer=T DoDerP=T.
 JobTyp=1 Pass  6:  I=  27 to  30 NPSUse=  4 ParTrn=T ParDer=T DoDerP=T.
 Spin components of T(2) and E(2):
     alpha-alpha T2 =       0.4713177577D-01 E2=     -0.1729010070D+00
     alpha-beta  T2 =       0.2610103646D+00 E2=     -0.9950756811D+00
     beta-beta   T2 =       0.4713177577D-01 E2=     -0.1729010070D+00
 ANorm=    0.1164162324D+01
 E2 =    -0.1340877695D+01 EUMP2 =    -0.45799629788831D+03
 DoAtom=TTTTTTTTTTTTTTTTTTT
          Differentiating once with respect to electric field.
                with respect to dipole field.
          Differentiating once with respect to nuclear coordinates.
          There are   1 degrees of freedom in the 1st order CPHF.
 Petite list used in FoFDir.
 MinBra= 0 MaxBra= 2 Meth= 1.
 IRaf=       0 NMat=   1 IRICut=       1 DoRegI=T DoRafI=F ISym2E= 1 JSym2E=1.
     1 vectors were produced by pass  0.
 AX will form   1 AO Fock derivatives at one time.
     1 vectors were produced by pass  1.
     1 vectors were produced by pass  2.
     1 vectors were produced by pass  3.
     1 vectors were produced by pass  4.
     1 vectors were produced by pass  5.
     1 vectors were produced by pass  6.
     1 vectors were produced by pass  7.
     1 vectors were produced by pass  8.
     1 vectors were produced by pass  9.
     1 vectors were produced by pass 10.
     1 vectors were produced by pass 11.
     1 vectors were produced by pass 12.
 Inv2:  IOpt= 1 Iter= 1 AM= 2.19D-16 Conv= 1.00D-12.
 Inverted reduced A of dimension   13 with in-core refinement.
 End of Minotr Frequency-dependent properties file   721 does not exist.

 **********************************************************************

            Population analysis using the SCF density.

 **********************************************************************

 Orbital symmetries:
       Occupied  (A) (A) (A) (A) (A) (A) (A) (A) (A) (A) (A) (A)
                 (A) (A) (A) (A) (A) (A) (A) (A) (A) (A) (A) (A)
                 (A) (A) (A) (A) (A) (A)
       Virtual   (A) (A) (A) (A) (A) (A) (A) (A) (A) (A) (A) (A)
                 (A) (A) (A) (A) (A) (A) (A) (A) (A) (A) (A) (A)
                 (A) (A) (A) (A) (A) (A) (A) (A) (A) (A) (A) (A)
                 (A) (A) (A) (A) (A) (A) (A) (A) (A) (A) (A) (A)
                 (A) (A) (A) (A) (A) (A) (A) (A) (A) (A) (A) (A)
                 (A) (A) (A) (A) (A) (A) (A) (A) (A) (A) (A) (A)
                 (A) (A) (A) (A) (A) (A) (A) (A) (A) (A) (A) (A)
                 (A) (A) (A) (A) (A) (A) (A) (A) (A) (A) (A) (A)
                 (A) (A) (A) (A) (A) (A) (A) (A) (A) (A) (A) (A)
                 (A) (A) (A) (A) (A) (A) (A) (A) (A) (A) (A) (A)
                 (A) (A) (A) (A) (A) (A) (A) (A) (A) (A) (A) (A)
                 (A) (A) (A) (A) (A) (A) (A) (A) (A) (A) (A) (A)
                 (A) (A) (A) (A) (A) (A) (A) (A) (A) (A) (A) (A)
                 (A) (A) (A) (A) (A) (A) (A) (A) (A) (A) (A) (A)
                 (A) (A) (A) (A) (A) (A) (A) (A) (A) (A) (A) (A)
                 (A) (A) (A) (A) (A) (A) (A) (A) (A) (A) (A) (A)
                 (A) (A) (A) (A) (A) (A) (A) (A) (A) (A) (A) (A)
                 (A) (A) (A) (A) (A) (A) (A) (A) (A) (A) (A) (A)
                 (A) (A) (A) (A) (A) (A) (A) (A) (A)
 The electronic state is 1-A.
 Alpha  occ. eigenvalues --  -20.79599 -20.74033 -20.72456 -20.72357 -20.72342
 Alpha  occ. eigenvalues --  -20.71581  -1.60352  -1.51153  -1.50159  -1.49748
 Alpha  occ. eigenvalues --   -1.49583  -1.47368  -0.96486  -0.94257  -0.88041
 Alpha  occ. eigenvalues --   -0.87895  -0.87235  -0.86409  -0.85282  -0.78117
 Alpha  occ. eigenvalues --   -0.75528  -0.74243  -0.72861  -0.72297  -0.69312
 Alpha  occ. eigenvalues --   -0.67510  -0.66210  -0.65964  -0.65542  -0.64825
 Alpha virt. eigenvalues --   -0.07682  -0.06442  -0.05424  -0.04546  -0.04212
 Alpha virt. eigenvalues --   -0.03040  -0.02921  -0.01187  -0.01142  -0.00480
 Alpha virt. eigenvalues --    0.00764   0.01165   0.01723   0.06497   0.07112
 Alpha virt. eigenvalues --    0.07479   0.08150   0.08595   0.09784   0.09963
 Alpha virt. eigenvalues --    0.10429   0.10907   0.11741   0.11908   0.12942
 Alpha virt. eigenvalues --    0.13335   0.13930   0.14179   0.14852   0.15601
 Alpha virt. eigenvalues --    0.16016   0.16417   0.16769   0.17272   0.18390
 Alpha virt. eigenvalues --    0.19393   0.20998   0.21362   0.22351   0.22754
 Alpha virt. eigenvalues --    0.23406   0.24260   0.25011   0.25689   0.26532
 Alpha virt. eigenvalues --    0.27961   0.28909   0.30494   0.31680   0.32072
 Alpha virt. eigenvalues --    0.32721   0.33297   0.34879   0.36019   0.36592
 Alpha virt. eigenvalues --    0.38301   0.39053   0.39599   0.39924   0.41639
 Alpha virt. eigenvalues --    0.42069   0.42852   0.43411   0.43990   0.44160
 Alpha virt. eigenvalues --    0.45040   0.46822   0.47210   0.47719   0.48313
 Alpha virt. eigenvalues --    0.49603   0.50054   0.51006   0.52043   0.53442
 Alpha virt. eigenvalues --    0.54631   0.54876   0.55058   0.55767   0.56432
 Alpha virt. eigenvalues --    0.57405   0.60664   0.61682   0.66973   0.68736
 Alpha virt. eigenvalues --    0.69614   0.71087   0.72395   0.74696   0.75598
 Alpha virt. eigenvalues --    0.75981   0.79153   0.82011   0.82582   0.83093
 Alpha virt. eigenvalues --    0.85609   0.86773   0.87045   0.89452   0.90361
 Alpha virt. eigenvalues --    0.95626   1.00625   1.01021   1.01667   1.03060
 Alpha virt. eigenvalues --    1.03327   1.04816   1.06819   1.08155   1.08802
 Alpha virt. eigenvalues --    1.10192   1.12061   1.14370   1.14665   1.16181
 Alpha virt. eigenvalues --    1.18971   1.20194   1.22139   1.25489   1.27688
 Alpha virt. eigenvalues --    1.29350   1.29968   1.30525   1.31573   1.32550
 Alpha virt. eigenvalues --    1.34479   1.38437   1.39997   1.40724   1.41725
 Alpha virt. eigenvalues --    1.45902   1.47809   1.48927   1.50237   1.56600
 Alpha virt. eigenvalues --    1.57573   1.61776   1.70196   1.74545   1.80471
 Alpha virt. eigenvalues --    1.81715   1.83218   1.85040   1.86594   1.87266
 Alpha virt. eigenvalues --    1.88260   1.89358   1.91445   1.91896   1.94998
 Alpha virt. eigenvalues --    1.95130   1.96337   1.97779   1.99397   2.00654
 Alpha virt. eigenvalues --    2.01507   2.04049   2.06564   2.11257   2.15254
 Alpha virt. eigenvalues --    2.18870   2.26729   2.29537   2.31614   2.33582
 Alpha virt. eigenvalues --    2.34353   2.36246   2.37413   2.38097   2.39761
 Alpha virt. eigenvalues --    2.42789   2.45474   2.46979   2.52319   2.53512
 Alpha virt. eigenvalues --    2.55976   2.64409   2.65528   2.66392   2.67053
 Alpha virt. eigenvalues --    2.67502   2.70936   2.72943   2.73405   2.78637
 Alpha virt. eigenvalues --    2.84965   2.85476   2.87321   2.88744   2.89139
 Alpha virt. eigenvalues --    2.91399   2.95139   2.96080   3.08098   3.09419
 Alpha virt. eigenvalues --    3.54367   3.55873   3.56630   3.57243   3.57685
 Alpha virt. eigenvalues --    3.59843   3.60701   3.61963   3.62417   3.63459
 Alpha virt. eigenvalues --    3.65364   3.66737   3.68478   3.70545   3.70617
 Alpha virt. eigenvalues --    3.74680   3.85376   3.93023   3.94486   3.98151
 Alpha virt. eigenvalues --    4.00772   4.07040   4.08717   4.12750   4.15448
 Alpha virt. eigenvalues --    4.18896   4.21151   4.24892   4.25510   4.30151
          Condensed to atoms (all electrons):
              1          2          3          4          5          6
     1  O    8.279145  -0.000348   0.000095  -0.028596  -0.019339  -0.018911
     2  O   -0.000348   7.649012  -0.039194   0.000109  -0.068892  -0.071964
     3  O    0.000095  -0.039194   7.871051   0.000001   0.000742   0.000103
     4  O   -0.028596   0.000109   0.000001   7.854944  -0.000036  -0.000056
     5  O   -0.019339  -0.068892   0.000742  -0.000036   7.985268  -0.006850
     6  O   -0.018911  -0.071964   0.000103  -0.000056  -0.006850   7.988003
     7  H   -0.014955  -0.004937  -0.000394   0.000682   0.328607   0.001117
     8  H    0.359602  -0.000258   0.000019   0.000318  -0.002968  -0.003104
     9  H    0.001332   0.285772  -0.016790   0.000076  -0.001787  -0.038219
    10  H    0.001944   0.284001   0.001313   0.000090  -0.036880  -0.002628
    11  H   -0.000001  -0.000752   0.368586   0.000000   0.000041  -0.000070
    12  H    0.000027   0.000306   0.361400   0.000001   0.000055  -0.000313
    13  H    0.002377  -0.000018   0.000000   0.359506   0.000026   0.000184
    14  H    0.002401  -0.000024   0.000001   0.359270   0.000191   0.000021
    15  H   -0.000103   0.278969  -0.043099  -0.000055  -0.005509  -0.002889
    16  H   -0.013570  -0.005434  -0.000532   0.000739   0.001009   0.327896
    17  H    0.275608   0.001515  -0.000005  -0.073454  -0.000526  -0.000450
    18  H   -0.001806  -0.000674   0.000252  -0.000188  -0.000151   0.369346
    19  H   -0.001653  -0.000397  -0.000063  -0.000194   0.369655  -0.000192
              7          8          9         10         11         12
     1  O   -0.014955   0.359602   0.001332   0.001944  -0.000001   0.000027
     2  O   -0.004937  -0.000258   0.285772   0.284001  -0.000752   0.000306
     3  O   -0.000394   0.000019  -0.016790   0.001313   0.368586   0.361400
     4  O    0.000682   0.000318   0.000076   0.000090   0.000000   0.000001
     5  O    0.328607  -0.002968  -0.001787  -0.036880   0.000041   0.000055
     6  O    0.001117  -0.003104  -0.038219  -0.002628  -0.000070  -0.000313
     7  H    0.410561  -0.001310  -0.002199  -0.002601  -0.000012  -0.000116
     8  H   -0.001310   0.441095  -0.000420  -0.000393  -0.000002   0.000001
     9  H   -0.002199  -0.000420   0.344397  -0.007267  -0.001303  -0.000875
    10  H   -0.002601  -0.000393  -0.007267   0.321483   0.001200   0.000331
    11  H   -0.000012  -0.000002  -0.001303   0.001200   0.462993  -0.042586
    12  H   -0.000116   0.000001  -0.000875   0.000331  -0.042586   0.462665
    13  H    0.000221   0.000064   0.000045  -0.000097   0.000000   0.000000
    14  H   -0.000593   0.000054  -0.000099   0.000044   0.000000   0.000000
    15  H    0.002074   0.000122  -0.060271  -0.043435  -0.000749  -0.000486
    16  H    0.004284  -0.001450  -0.001981  -0.002874  -0.000089  -0.000070
    17  H   -0.001869  -0.056610   0.002033   0.002061   0.000009   0.000010
    18  H   -0.000400  -0.000241  -0.002685  -0.000165   0.000025  -0.000007
    19  H   -0.064532  -0.000259   0.000139  -0.002989  -0.000080  -0.000029
             13         14         15         16         17         18
     1  O    0.002377   0.002401  -0.000103  -0.013570   0.275608  -0.001806
     2  O   -0.000018  -0.000024   0.278969  -0.005434   0.001515  -0.000674
     3  O    0.000000   0.000001  -0.043099  -0.000532  -0.000005   0.000252
     4  O    0.359506   0.359270  -0.000055   0.000739  -0.073454  -0.000188
     5  O    0.000026   0.000191  -0.005509   0.001009  -0.000526  -0.000151
     6  O    0.000184   0.000021  -0.002889   0.327896  -0.000450   0.369346
     7  H    0.000221  -0.000593   0.002074   0.004284  -0.001869  -0.000400
     8  H    0.000064   0.000054   0.000122  -0.001450  -0.056610  -0.000241
     9  H    0.000045  -0.000099  -0.060271  -0.001981   0.002033  -0.002685
    10  H   -0.000097   0.000044  -0.043435  -0.002874   0.002061  -0.000165
    11  H    0.000000   0.000000  -0.000749  -0.000089   0.000009   0.000025
    12  H    0.000000   0.000000  -0.000486  -0.000070   0.000010  -0.000007
    13  H    0.475662  -0.043028   0.000002  -0.000589  -0.000914   0.000088
    14  H   -0.043028   0.475482   0.000006   0.000220  -0.000874   0.000024
    15  H    0.000002   0.000006   0.398068   0.002496  -0.000614  -0.000042
    16  H   -0.000589   0.000220   0.002496   0.409463  -0.001855  -0.063707
    17  H   -0.000914  -0.000874  -0.000614  -0.001855   0.344096  -0.000117
    18  H    0.000088   0.000024  -0.000042  -0.063707  -0.000117   0.495305
    19  H    0.000022   0.000083   0.000002  -0.000369  -0.000054   0.000066
             19
     1  O   -0.001653
     2  O   -0.000397
     3  O   -0.000063
     4  O   -0.000194
     5  O    0.369655
     6  O   -0.000192
     7  H   -0.064532
     8  H   -0.000259
     9  H    0.000139
    10  H   -0.002989
    11  H   -0.000080
    12  H   -0.000029
    13  H    0.000022
    14  H    0.000083
    15  H    0.000002
    16  H   -0.000369
    17  H   -0.000054
    18  H    0.000066
    19  H    0.494313
 Mulliken atomic charges:
              1
     1  O   -0.823248
     2  O   -0.306791
     3  O   -0.503485
     4  O   -0.473158
     5  O   -0.542658
     6  O   -0.541023
     7  H    0.346373
     8  H    0.265741
     9  H    0.500103
    10  H    0.486862
    11  H    0.212788
    12  H    0.219686
    13  H    0.206449
    14  H    0.206820
    15  H    0.475509
    16  H    0.346415
    17  H    0.512010
    18  H    0.205078
    19  H    0.206528
 Sum of Mulliken charges=   1.00000
 Atomic charges with hydrogens summed into heavy atoms:
              1
     1  O   -0.045497
     2  O    1.155683
     3  O   -0.071011
     4  O   -0.059889
     5  O    0.010243
     6  O    0.010470
     7  H    0.000000
     8  H    0.000000
     9  H    0.000000
    10  H    0.000000
    11  H    0.000000
    12  H    0.000000
    13  H    0.000000
    14  H    0.000000
    15  H    0.000000
    16  H    0.000000
    17  H    0.000000
    18  H    0.000000
    19  H    0.000000
 Sum of Mulliken charges=   1.00000
 Electronic spatial extent (au):  <R**2>=  2074.8940
 Charge=     1.0000 electrons
 Dipole moment (field-independent basis, Debye):
    X=     0.4154    Y=     0.9527    Z=    -1.4208  Tot=     1.7604
 Quadrupole moment (field-independent basis, Debye-Ang):
   XX=    31.8882   YY=   -22.5993   ZZ=   -33.6031
   XY=     5.1670   XZ=     6.5541   YZ=    -0.0590
 Traceless Quadrupole moment (field-independent basis, Debye-Ang):
   XX=    39.9929   YY=   -14.4945   ZZ=   -25.4984
   XY=     5.1670   XZ=     6.5541   YZ=    -0.0590
 Octapole moment (field-independent basis, Debye-Ang**2):
  XXX=    29.2390  YYY=     0.7385  ZZZ=     7.8091  XYY=   -16.4069
  XXY=    23.4399  XXZ=   -33.0412  XZZ=    -1.0603  YZZ=     0.2831
  YYZ=   -15.9500  XYZ=    -0.6254
 Hexadecapole moment (field-independent basis, Debye-Ang**3):
 XXXX=   -77.8175 YYYY=  -162.2587 ZZZZ=   -59.8040 XXXY=   128.8785
 XXXZ=   238.4234 YYYX=     2.0451 YYYZ=    -1.0983 ZZZX=    -0.0157
 ZZZY=     0.0115 XXYY=  -309.0698 XXZZ=  -217.2348 YYZZ=   -66.3239
 XXYZ=     0.1543 YYXZ=     6.5385 ZZXY=     3.1886
 N-N= 2.765174030952D+02 E-N=-1.627036110789D+03  KE= 4.556653500276D+02
 ***** Axes restored to original set *****
 -------------------------------------------------------------------
 Center     Atomic                   Forces (Hartrees/Bohr)
 Number     Number              X              Y              Z
 -------------------------------------------------------------------
    1          8          -0.015939388   -0.001030220    0.001671790
    2          8          -0.006583820   -0.007397465   -0.002848366
    3          8          -0.005311265    0.003031475   -0.001690942
    4          8           0.000292900   -0.002348977   -0.000825244
    5          8          -0.003632537    0.006443460   -0.009587856
    6          8          -0.001116135   -0.000665900    0.012164804
    7          1           0.011434510   -0.009797094    0.003793518
    8          1          -0.007053926   -0.010420285   -0.002620500
    9          1          -0.005592075    0.007519524   -0.003106786
   10          1          -0.003772362    0.003604196    0.008016923
   11          1           0.002050183    0.009221321    0.004479184
   12          1          -0.000495965   -0.010181118   -0.003134814
   13          1           0.000755630   -0.002380735    0.008811165
   14          1          -0.001504299    0.003377756   -0.008392428
   15          1           0.013457170   -0.000893933    0.000691113
   16          1           0.009505297   -0.004873369   -0.011555321
   17          1           0.025125006    0.011958195    0.000795571
   18          1          -0.005695154    0.002135526    0.002622327
   19          1          -0.005923768    0.002697643    0.000715863
 -------------------------------------------------------------------
 Cartesian Forces:  Max     0.025125006 RMS     0.007236483

 GradGradGradGradGradGradGradGradGradGradGradGradGradGradGradGradGradGrad
 Berny optimization.
 Internal  Forces:  Max     0.026047725 RMS     0.005527361
 Search for a local minimum.
 Step number   1 out of a maximum of 114
 All quantities printed in internal units (Hartrees-Bohrs-Radians)
 Second derivative matrix not updated -- first step.
     Eigenvalues ---    0.00230   0.00230   0.00239   0.00523   0.00574
     Eigenvalues ---    0.00655   0.00709   0.01037   0.01189   0.02575
     Eigenvalues ---    0.02903   0.03017   0.03508   0.04312   0.05343
     Eigenvalues ---    0.05471   0.06233   0.07286   0.07489   0.07855
     Eigenvalues ---    0.09306   0.09564   0.10119   0.12057   0.12930
     Eigenvalues ---    0.14026   0.14422   0.15110   0.16000   0.16000
     Eigenvalues ---    0.16000   0.16000   0.19043   0.19747   0.19951
     Eigenvalues ---    0.24383   0.25000   0.25000   0.43681   0.45244
     Eigenvalues ---    0.45690   0.47232   0.47864   0.49892   0.51383
     Eigenvalues ---    0.52345   0.52398   0.52709   0.52717   0.54259
     Eigenvalues ---    0.542851000.000001000.000001000.000001000.00000
     Eigenvalues --- 1000.000001000.000001000.000001000.000001000.00000
     Eigenvalues --- 1000.000001000.000001000.000001000.000001000.00000
     Eigenvalues --- 1000.000001000.000001000.000001000.000001000.00000
     Eigenvalues --- 1000.000001000.000001000.00000
 RFO step:  Lambda=-7.55646329D-03.
 Linear search not attempted -- first point.
 Iteration  1 RMS(Cart)=  0.04468184 RMS(Int)=  0.00106206
 Iteration  2 RMS(Cart)=  0.00092797 RMS(Int)=  0.00028352
 Iteration  3 RMS(Cart)=  0.00000097 RMS(Int)=  0.00028351
 Variable       Old X    -DE/DX   Delta X   Delta X   Delta X     New X
                                 (Linear)    (Quad)   (Total)
    R1        3.57964  -0.00175   0.00000  -0.03950  -0.03950   3.54014
    R2        1.85195  -0.01166   0.00000  -0.02236  -0.02236   1.82959
    R3        3.57767  -0.00179   0.00000  -0.03993  -0.03993   3.53774
    R4        1.93538  -0.02605   0.00000  -0.05862  -0.05862   1.87677
    R5        1.90141   0.00469   0.00000   0.01120   0.01120   1.91261
    R6        1.90534   0.00434   0.00000   0.01053   0.01052   1.91587
    R7        1.86674   0.00964   0.00000   0.01904   0.01904   1.88578
    R8        1.84270  -0.00856   0.00000  -0.01612  -0.01612   1.82658
    R9        1.84220  -0.00832   0.00000  -0.01566  -0.01566   1.82654
   R10        3.15723  -0.00401   0.00000  -0.04652  -0.04652   3.11071
   R11        1.83919  -0.00734   0.00000  -0.01372  -0.01372   1.82547
   R12        1.83927  -0.00736   0.00000  -0.01377  -0.01377   1.82550
   R13        3.20220   0.00037   0.00000   0.00455   0.00455   3.20675
   R14        1.88553  -0.01669   0.00000  -0.03483  -0.03483   1.85070
   R15        3.00168  -0.00510   0.00000  -0.04582  -0.04582   2.95586
   R16        1.82473  -0.00074   0.00000  -0.00134  -0.00134   1.82338
   R17        3.01554  -0.00496   0.00000  -0.04490  -0.04490   2.97065
   R18        1.88682  -0.01693   0.00000  -0.03538  -0.03538   1.85144
   R19        1.82496  -0.00087   0.00000  -0.00158  -0.00158   1.82339
    A1        1.88413   0.00131   0.00000   0.01310   0.01295   1.89708
    A2        1.72405   0.00005   0.00000  -0.00044  -0.00047   1.72358
    A3        2.04656   0.00112   0.00000   0.01079   0.01078   2.05734
    A4        1.88608   0.00133   0.00000   0.01321   0.01306   1.89915
    A5        1.86416  -0.00440   0.00000  -0.04225  -0.04217   1.82199
    A6        2.04859   0.00113   0.00000   0.01083   0.01081   2.05940
    A7        1.88490  -0.00166   0.00000  -0.01299  -0.01342   1.87148
    A8        2.00774   0.00052   0.00000  -0.01442  -0.01501   1.99272
    A9        2.00428  -0.00067   0.00000  -0.02315  -0.02365   1.98063
   A10        1.90267  -0.00754   0.00000  -0.05328  -0.05323   1.84944
   A11        2.05027   0.00364   0.00000   0.01564   0.01568   2.06595
   A12        2.05525   0.00494   0.00000   0.02345   0.02349   2.07874
   A13        1.88996  -0.00657   0.00000  -0.04665  -0.04668   1.84329
   A14        2.10730   0.00351   0.00000   0.01485   0.01483   2.12214
   A15        2.10624   0.00349   0.00000   0.01469   0.01467   2.12092
   A16        1.98932   0.00100   0.00000  -0.00243  -0.00262   1.98670
   A17        1.94743  -0.00630   0.00000  -0.05426  -0.05446   1.89297
   A18        2.09847   0.00406   0.00000   0.01848   0.01766   2.11613
   A19        1.97910   0.00109   0.00000  -0.00213  -0.00230   1.97680
   A20        2.10104   0.00399   0.00000   0.01812   0.01728   2.11832
   A21        1.94388  -0.00631   0.00000  -0.05519  -0.05536   1.88852
   A22        2.68000   0.00125   0.00000   0.00294   0.00298   2.68298
   A23        2.90997  -0.00184   0.00000   0.00008   0.00032   2.91030
   A24        2.90037  -0.00142   0.00000   0.00186   0.00208   2.90245
   A25        2.93227   0.00245   0.00000   0.00951   0.00951   2.94178
   A26        2.68814   0.00132   0.00000   0.00357   0.00360   2.69174
   A27        2.94044   0.00320   0.00000   0.01241   0.01241   2.95285
    D1       -1.58372  -0.00241   0.00000  -0.01803  -0.01818  -1.60191
    D2        0.37673  -0.00055   0.00000   0.00016  -0.00008   0.37666
    D3        2.59477   0.00157   0.00000   0.01983   0.01980   2.61457
    D4       -0.36341   0.00055   0.00000  -0.00040  -0.00017  -0.36358
    D5        1.59549   0.00240   0.00000   0.01771   0.01786   1.61335
    D6       -2.58006  -0.00157   0.00000  -0.02008  -0.02004  -2.60010
    D7        2.10812  -0.00100   0.00000  -0.00908  -0.00925   2.09886
    D8       -0.00702   0.00000   0.00000  -0.00019  -0.00019  -0.00721
    D9       -2.12607   0.00099   0.00000   0.00867   0.00885  -2.11722
   D10       -0.13158   0.00013   0.00000  -0.01045  -0.01001  -0.14160
   D11       -2.39579   0.00209   0.00000   0.04432   0.04430  -2.35149
   D12        0.14472  -0.00028   0.00000   0.00777   0.00727   0.15199
   D13        2.41085  -0.00156   0.00000  -0.04202  -0.04184   2.36902
   D14       -2.71600  -0.00147   0.00000  -0.03752  -0.03711  -2.75311
   D15        1.36295   0.00105   0.00000   0.01562   0.01521   1.37815
   D16        1.13581   0.00094   0.00000   0.01033   0.01036   1.14617
   D17       -2.81698  -0.00114   0.00000  -0.03054  -0.03057  -2.84755
   D18        1.92315   0.00083   0.00000   0.02259   0.02258   1.94573
   D19       -1.89890  -0.00084   0.00000  -0.02309  -0.02307  -1.92197
   D20       -0.47840  -0.00098   0.00000  -0.02124  -0.02092  -0.49932
   D21       -2.92576  -0.00121   0.00000   0.01568   0.01477  -2.91099
   D22        0.13903   0.00116   0.00000   0.01753   0.01756   0.15659
   D23        2.52105  -0.00320   0.00000  -0.05519  -0.05565   2.46540
   D24       -0.14692  -0.00096   0.00000  -0.01411  -0.01407  -0.16099
   D25       -2.51288   0.00339   0.00000   0.05930   0.05977  -2.45310
   D26        0.45981   0.00097   0.00000   0.02102   0.02071   0.48052
   D27        2.89559   0.00130   0.00000  -0.01531  -0.01437   2.88122
         Item               Value     Threshold  Converged?
 Maximum Force            0.026048     0.000450     NO 
 RMS     Force            0.005527     0.000300     NO 
 Maximum Displacement     0.118114     0.001800     NO 
 RMS     Displacement     0.045042     0.001200     NO 
 Predicted change in Energy=-3.971096D-03
 GradGradGradGradGradGradGradGradGradGradGradGradGradGradGradGradGradGrad

                          Input orientation:                          
 ---------------------------------------------------------------------
 Center     Atomic     Atomic              Coordinates (Angstroms)
 Number     Number      Type              X           Y           Z
 ---------------------------------------------------------------------
    1          8             0       -1.578874    1.083113    0.538121
    2          8             0        1.470240   -1.046450   -0.575814
    3          8             0        4.094507   -1.173184   -0.726405
    4          8             0       -4.237323    0.968749    0.848347
    5          8             0        0.400884   -0.504439    1.686609
    6          8             0       -0.048499    0.657338   -1.751999
    7          1             0       -0.439352   -0.027298    1.527043
    8          1             0       -1.455217    1.996754    0.833657
    9          1             0        0.949301   -0.401049   -1.155854
   10          1             0        1.151394   -0.917560    0.377907
   11          1             0        4.460722   -1.826554   -1.337375
   12          1             0        4.658958   -0.392263   -0.802587
   13          1             0       -4.852984    0.946251    0.104299
   14          1             0       -4.660881    0.459822    1.551748
   15          1             0        2.460716   -0.978386   -0.676561
   16          1             0       -0.784426    0.880229   -1.144858
   17          1             0       -2.557189    0.929593    0.613373
   18          1             0       -0.410013    0.561572   -2.641469
   19          1             0        0.263022   -1.134195    2.404537
 ---------------------------------------------------------------------
                    Distance matrix (angstroms):
                    1          2          3          4          5
     1  O    0.000000
     2  O    3.882395   0.000000
     3  O    6.235154   2.631637   0.000000
     4  O    2.678931   6.218162   8.745690   0.000000
     5  O    2.785460   2.560441   4.462366   4.938211   0.000000
     6  O    2.787111   2.567659   4.644044   4.940144   3.657281
     7  H    1.873363   3.017817   5.191046   3.984635   0.979348
     8  H    0.968180   4.450393   6.578885   2.965995   3.229335
     9  H    3.385847   1.012110   3.266946   5.726625   2.896731
    10  H    3.388617   1.013834   3.153848   5.728677   1.564173
    11  H    6.961348   3.183005   0.966587   9.393992   5.232088
    12  H    6.548648   3.263022   0.966564   9.149959   4.933546
    13  H    3.305560   6.664576   9.232533   0.965998   5.675504
    14  H    3.303740   6.662284   9.193123   0.966012   5.154557
    15  H    4.695052   0.997910   1.646118   7.140056   3.170505
    16  H    1.872092   3.019838   5.309952   3.987882   3.367414
    17  H    0.993142   4.641023   7.103642   1.696937   3.458104
    18  H    3.427540   3.223045   5.193029   5.195470   4.530585
    19  H    3.434028   3.216764   4.948191   5.205497   0.964894
                    6          7          8          9         10
     6  O    0.000000
     7  H    3.372479   0.000000
     8  H    3.233962   2.368449   0.000000
     9  H    1.571998   3.044008   3.935647   0.000000
    10  H    2.908014   2.154891   3.936414   1.630965   0.000000
    11  H    5.164756   5.954237   7.370847   3.794086   3.836679
    12  H    4.915608   5.617219   6.765193   3.726450   3.737982
    13  H    5.158720   4.738370   3.630474   6.088490   6.292949
    14  H    5.676956   4.249612   3.626858   6.288589   6.087498
    15  H    3.182502   3.764416   5.144584   1.687428   1.682238
    16  H    0.979739   2.842840   2.368778   2.155830   3.049304
    17  H    3.458704   2.497132   1.549742   4.146835   4.149820
    18  H    0.964894   4.210003   3.902396   2.231911   3.707082
    19  H    4.536897   1.577513   3.901647   3.699307   2.223369
                   11         12         13         14         15
    11  H    0.000000
    12  H    1.543530   0.000000
    13  H    9.824052   9.648373   0.000000
    14  H    9.837591   9.650303   1.539034   0.000000
    15  H    2.270702   2.278529   7.602906   7.599404   0.000000
    16  H    5.905532   5.600608   4.256515   4.740816   3.768912
    17  H    7.787993   7.471615   2.351618   2.350905   5.521203
    18  H    5.579236   5.475926   5.237099   5.971875   3.804395
    19  H    5.665859   5.491846   5.982714   5.245280   3.787783
                   16         17         18         19
    16  H    0.000000
    17  H    2.497299   0.000000
    18  H    1.575300   3.916605   0.000000
    19  H    4.213462   3.926969   5.365704   0.000000
 Stoichiometry    H13O6(1+)
 Framework group  C1[X(H13O6)]
 Deg. of freedom    51
 Full point group                 C1
 Largest Abelian subgroup         C1      NOp   1
 Largest concise Abelian subgroup C1      NOp   1
                         Standard orientation:                         
 ---------------------------------------------------------------------
 Center     Atomic     Atomic              Coordinates (Angstroms)
 Number     Number      Type              X           Y           Z
 ---------------------------------------------------------------------
    1          8             0       -1.890814   -0.007609    0.602873
    2          8             0        1.797121    0.058956   -0.608612
    3          8             0        4.323525   -0.119376    0.106227
    4          8             0       -4.412432   -0.051050   -0.300577
    5          8             0        0.188250   -1.796310    0.116219
    6          8             0        0.122658    1.860360    0.128948
    7          1             0       -0.703576   -1.407796    0.229465
    8          1             0       -2.094314   -0.017386    1.549374
    9          1             0        1.240658    0.862584   -0.346129
   10          1             0        1.270980   -0.768095   -0.349727
   11          1             0        4.975096    0.216449   -0.523826
   12          1             0        4.645334    0.133730    0.981797
   13          1             0       -4.834578    0.711022   -0.717940
   14          1             0       -4.804956   -0.827725   -0.719957
   15          1             0        2.726398    0.069000   -0.245065
   16          1             0       -0.752055    1.434587    0.245064
   17          1             0       -2.779243   -0.021312    0.159210
   18          1             0       -0.011301    2.709909   -0.308479
   19          1             0        0.095097   -2.654738   -0.314414
 ---------------------------------------------------------------------
 Rotational constants (GHZ):      3.4226609      0.5899022      0.5231594
 Standard basis: Aug-CC-pVDZ (5D, 7F)
 There are   255 symmetry adapted basis functions of A   symmetry.
 Integral buffers will be    131072 words long.
 Raffenetti 1 integral format.
 Two-electron integral symmetry is turned on.
   255 basis functions,   401 primitive gaussians,   267 cartesian basis functions
    30 alpha electrons       30 beta electrons
       nuclear repulsion energy       279.2096049558 Hartrees.
 NAtoms=   19 NActive=   19 NUniq=   19 SFac= 7.50D-01 NAtFMM=   80 NAOKFM=F Big=F
 One-electron integrals computed using PRISM.
 NBasis=   255 RedAO= T  NBF=   255
 NBsUse=   255 1.00D-06 NBFU=   255
 Initial guess read from the read-write file:
 Initial guess orbital symmetries:
       Occupied  (A) (A) (A) (A) (A) (A) (A) (A) (A) (A) (A) (A)
                 (A) (A) (A) (A) (A) (A) (A) (A) (A) (A) (A) (A)
                 (A) (A) (A) (A) (A) (A)
       Virtual   (A) (A) (A) (A) (A) (A) (A) (A) (A) (A) (A) (A)
                 (A) (A) (A) (A) (A) (A) (A) (A) (A) (A) (A) (A)
                 (A) (A) (A) (A) (A) (A) (A) (A) (A) (A) (A) (A)
                 (A) (A) (A) (A) (A) (A) (A) (A) (A) (A) (A) (A)
                 (A) (A) (A) (A) (A) (A) (A) (A) (A) (A) (A) (A)
                 (A) (A) (A) (A) (A) (A) (A) (A) (A) (A) (A) (A)
                 (A) (A) (A) (A) (A) (A) (A) (A) (A) (A) (A) (A)
                 (A) (A) (A) (A) (A) (A) (A) (A) (A) (A) (A) (A)
                 (A) (A) (A) (A) (A) (A) (A) (A) (A) (A) (A) (A)
                 (A) (A) (A) (A) (A) (A) (A) (A) (A) (A) (A) (A)
                 (A) (A) (A) (A) (A) (A) (A) (A) (A) (A) (A) (A)
                 (A) (A) (A) (A) (A) (A) (A) (A) (A) (A) (A) (A)
                 (A) (A) (A) (A) (A) (A) (A) (A) (A) (A) (A) (A)
                 (A) (A) (A) (A) (A) (A) (A) (A) (A) (A) (A) (A)
                 (A) (A) (A) (A) (A) (A) (A) (A) (A) (A) (A) (A)
                 (A) (A) (A) (A) (A) (A) (A) (A) (A) (A) (A) (A)
                 (A) (A) (A) (A) (A) (A) (A) (A) (A) (A) (A) (A)
                 (A) (A) (A) (A) (A) (A) (A) (A) (A) (A) (A) (A)
                 (A) (A) (A) (A) (A) (A) (A) (A) (A)
 Harris functional with IExCor=  205 diagonalized for initial guess.
 ExpMin= 2.97D-02 ExpMax= 1.17D+04 ExpMxC= 4.01D+02 IAcc=3 IRadAn=         5 AccDes= 0.00D+00
 HarFok:  IExCor= 205 AccDes= 0.00D+00 IRadAn=         5 IDoV=1
 ScaDFX=  1.000000  1.000000  1.000000  1.000000
 Requested convergence on RMS density matrix=1.00D-08 within 128 cycles.
 Requested convergence on MAX density matrix=1.00D-06.
 Requested convergence on             energy=1.00D-06.
 No special actions if energy rises.
 SCF Done:  E(RHF) =  -456.662868482     A.U. after   10 cycles
             Convg  =    0.3058D-08             -V/T =  2.0017
             S**2   =   0.0000
 ExpMin= 2.97D-02 ExpMax= 1.17D+04 ExpMxC= 4.01D+02 IAcc=3 IRadAn=         5 AccDes= 0.00D+00
 HarFok:  IExCor= 205 AccDes= 0.00D+00 IRadAn=         5 IDoV=1
 ScaDFX=  1.000000  1.000000  1.000000  1.000000
 Range of M.O.s used for correlation:     7   255
 NBasis=   255 NAE=    30 NBE=    30 NFC=     6 NFV=     0
 NROrb=    249 NOA=    24 NOB=    24 NVA=   225 NVB=   225

 **** Warning!!: The largest alpha MO coefficient is  0.10719563D+02

 Fully direct method using O(ONN) memory.
 JobTyp=1 Pass  1:  I=   7 to  10 NPSUse=  4 ParTrn=T ParDer=T DoDerP=T.
 JobTyp=1 Pass  2:  I=  11 to  14 NPSUse=  4 ParTrn=T ParDer=T DoDerP=T.
 JobTyp=1 Pass  3:  I=  15 to  18 NPSUse=  4 ParTrn=T ParDer=T DoDerP=T.
 JobTyp=1 Pass  4:  I=  19 to  22 NPSUse=  4 ParTrn=T ParDer=T DoDerP=T.
 JobTyp=1 Pass  5:  I=  23 to  26 NPSUse=  4 ParTrn=T ParDer=T DoDerP=T.
 JobTyp=1 Pass  6:  I=  27 to  30 NPSUse=  4 ParTrn=T ParDer=T DoDerP=T.
 Spin components of T(2) and E(2):
     alpha-alpha T2 =       0.4678658835D-01 E2=     -0.1726516202D+00
     alpha-beta  T2 =       0.2586635647D+00 E2=     -0.9927250556D+00
     beta-beta   T2 =       0.4678658835D-01 E2=     -0.1726516202D+00
 ANorm=    0.1162857146D+01
 E2 =    -0.1338028296D+01 EUMP2 =    -0.45800089677788D+03
 DoAtom=TTTTTTTTTTTTTTTTTTT
          Differentiating once with respect to electric field.
                with respect to dipole field.
          Differentiating once with respect to nuclear coordinates.
          There are   1 degrees of freedom in the 1st order CPHF.
 Petite list used in FoFDir.
 MinBra= 0 MaxBra= 2 Meth= 1.
 IRaf=       0 NMat=   1 IRICut=       1 DoRegI=T DoRafI=F ISym2E= 1 JSym2E=1.
     1 vectors were produced by pass  0.
 AX will form   1 AO Fock derivatives at one time.
     1 vectors were produced by pass  1.
     1 vectors were produced by pass  2.
     1 vectors were produced by pass  3.
     1 vectors were produced by pass  4.
     1 vectors were produced by pass  5.
     1 vectors were produced by pass  6.
     1 vectors were produced by pass  7.
     1 vectors were produced by pass  8.
     1 vectors were produced by pass  9.
     1 vectors were produced by pass 10.
     1 vectors were produced by pass 11.
     1 vectors were produced by pass 12.
 Inv2:  IOpt= 1 Iter= 1 AM= 2.74D-16 Conv= 1.00D-12.
 Inverted reduced A of dimension   13 with in-core refinement.
 End of Minotr Frequency-dependent properties file   721 does not exist.
 ***** Axes restored to original set *****
 -------------------------------------------------------------------
 Center     Atomic                   Forces (Hartrees/Bohr)
 Number     Number              X              Y              Z
 -------------------------------------------------------------------
    1          8          -0.001187786   -0.002908607   -0.000894759
    2          8          -0.000566258   -0.004574587   -0.002421809
    3          8          -0.006559806    0.002343711    0.000351615
    4          8           0.001194677   -0.000938564   -0.000492172
    5          8           0.004311494   -0.001335364   -0.002487866
    6          8           0.004437266   -0.002236432    0.000237838
    7          1          -0.000629603    0.000071886   -0.001579620
    8          1          -0.001411235    0.000415990    0.000331443
    9          1          -0.003644760    0.004638073   -0.001223000
   10          1          -0.003065485    0.002551566    0.004585053
   11          1           0.001568560   -0.000316743   -0.000373611
   12          1           0.002124933   -0.000311955   -0.000318809
   13          1          -0.001771875   -0.000161270    0.000383346
   14          1          -0.001807662   -0.000047989    0.000027169
   15          1           0.005961769   -0.001188788    0.000836563
   16          1          -0.000159380   -0.000963801    0.001504257
   17          1           0.004751163    0.003907453    0.000718016
   18          1          -0.001880150    0.000784031   -0.000436760
   19          1          -0.001665861    0.000271390    0.001253103
 -------------------------------------------------------------------
 Cartesian Forces:  Max     0.006559806 RMS     0.002371882

 GradGradGradGradGradGradGradGradGradGradGradGradGradGradGradGradGradGrad
 Berny optimization.
 Internal  Forces:  Max     0.003062375 RMS     0.001316882
 Search for a local minimum.
 Step number   2 out of a maximum of 114
 All quantities printed in internal units (Hartrees-Bohrs-Radians)
 Update second derivatives using D2CorX and points  1  2
 Trust test= 1.16D+00 RLast= 2.27D-01 DXMaxT set to 4.24D-01
     Eigenvalues ---    0.00230   0.00230   0.00241   0.00524   0.00577
     Eigenvalues ---    0.00660   0.00709   0.01049   0.01188   0.02842
     Eigenvalues ---    0.03067   0.03401   0.03587   0.04409   0.05281
     Eigenvalues ---    0.05480   0.06145   0.07215   0.07438   0.07649
     Eigenvalues ---    0.08947   0.09560   0.09774   0.12064   0.12667
     Eigenvalues ---    0.13334   0.14239   0.14972   0.15459   0.16000
     Eigenvalues ---    0.16000   0.16012   0.19086   0.19718   0.20001
     Eigenvalues ---    0.24340   0.24752   0.25001   0.42730   0.44904
     Eigenvalues ---    0.45636   0.47227   0.49320   0.49642   0.51610
     Eigenvalues ---    0.52371   0.52572   0.52713   0.54068   0.54273
     Eigenvalues ---    0.567891000.000001000.000001000.000001000.00000
     Eigenvalues --- 1000.000001000.000001000.000001000.000001000.00000
     Eigenvalues --- 1000.000001000.000001000.000001000.000001000.00000
     Eigenvalues --- 1000.000001000.000001000.000001000.000001000.00000
     Eigenvalues --- 1000.000001000.000001000.00000
 RFO step:  Lambda=-9.42194366D-04.
 Quartic linear search produced a step of  0.23397.
 Iteration  1 RMS(Cart)=  0.05640892 RMS(Int)=  0.00124229
 Iteration  2 RMS(Cart)=  0.00152763 RMS(Int)=  0.00023005
 Iteration  3 RMS(Cart)=  0.00000217 RMS(Int)=  0.00023002
 Iteration  4 RMS(Cart)=  0.00000000 RMS(Int)=  0.00023002
 Variable       Old X    -DE/DX   Delta X   Delta X   Delta X     New X
                                 (Linear)    (Quad)   (Total)
    R1        3.54014  -0.00062  -0.00924  -0.01242  -0.02171   3.51844
    R2        1.82959   0.00031  -0.00523   0.00341  -0.00182   1.82777
    R3        3.53774  -0.00064  -0.00934  -0.01261  -0.02200   3.51574
    R4        1.87677  -0.00271  -0.01371  -0.00058  -0.01430   1.86247
    R5        1.91261   0.00293   0.00262   0.00699   0.00966   1.92227
    R6        1.91587   0.00306   0.00246   0.00748   0.00999   1.92586
    R7        1.88578   0.00306   0.00445   0.00527   0.00972   1.89550
    R8        1.82658   0.00104  -0.00377   0.00437   0.00059   1.82718
    R9        1.82654   0.00101  -0.00366   0.00424   0.00057   1.82711
   R10        3.11071  -0.00304  -0.01088  -0.03969  -0.05058   3.06014
   R11        1.82547   0.00084  -0.00321   0.00358   0.00037   1.82584
   R12        1.82550   0.00084  -0.00322   0.00359   0.00037   1.82586
   R13        3.20675   0.00232   0.00106   0.03701   0.03807   3.24482
   R14        1.85070   0.00057  -0.00815   0.00532  -0.00285   1.84785
   R15        2.95586  -0.00284  -0.01072  -0.02789  -0.03857   2.91728
   R16        1.82338   0.00099  -0.00031   0.00241   0.00209   1.82548
   R17        2.97065  -0.00285  -0.01050  -0.02858  -0.03904   2.93160
   R18        1.85144   0.00057  -0.00828   0.00540  -0.00290   1.84854
   R19        1.82339   0.00103  -0.00037   0.00252   0.00215   1.82554
    A1        1.89708   0.00047   0.00303   0.00524   0.00826   1.90534
    A2        1.72358  -0.00087  -0.00011  -0.00916  -0.00937   1.71421
    A3        2.05734   0.00063   0.00252   0.00289   0.00547   2.06280
    A4        1.89915   0.00048   0.00306   0.00535   0.00839   1.90754
    A5        1.82199  -0.00122  -0.00987  -0.00600  -0.01585   1.80613
    A6        2.05940   0.00063   0.00253   0.00295   0.00553   2.06493
    A7        1.87148  -0.00062  -0.00314  -0.00775  -0.01142   1.86007
    A8        1.99272  -0.00021  -0.00351  -0.01440  -0.01867   1.97406
    A9        1.98063  -0.00068  -0.00553  -0.01780  -0.02402   1.95660
   A10        1.84944  -0.00165  -0.01245   0.00324  -0.00965   1.83980
   A11        2.06595   0.00110   0.00367   0.01263   0.01597   2.08192
   A12        2.07874   0.00228   0.00550   0.02056   0.02574   2.10448
   A13        1.84329  -0.00179  -0.01092   0.00131  -0.01010   1.83319
   A14        2.12214   0.00147   0.00347   0.01634   0.01939   2.14153
   A15        2.12092   0.00145   0.00343   0.01617   0.01919   2.14011
   A16        1.98670  -0.00074  -0.00061  -0.00316  -0.00377   1.98293
   A17        1.89297  -0.00123  -0.01274  -0.00639  -0.01918   1.87379
   A18        2.11613   0.00164   0.00413   0.01070   0.01456   2.13069
   A19        1.97680  -0.00064  -0.00054  -0.00258  -0.00310   1.97371
   A20        2.11832   0.00155   0.00404   0.01016   0.01394   2.13226
   A21        1.88852  -0.00118  -0.01295  -0.00616  -0.01915   1.86937
   A22        2.68298   0.00116   0.00070   0.00660   0.00727   2.69024
   A23        2.91030   0.00000   0.00008   0.00533   0.00568   2.91597
   A24        2.90245   0.00043   0.00049   0.00730   0.00806   2.91051
   A25        2.94178   0.00224   0.00222   0.00981   0.01203   2.95381
   A26        2.69174   0.00131   0.00084   0.00743   0.00823   2.69997
   A27        2.95285   0.00238   0.00290   0.01010   0.01301   2.96586
    D1       -1.60191  -0.00055  -0.00425   0.01033   0.00605  -1.59585
    D2        0.37666  -0.00025  -0.00002   0.01388   0.01377   0.39043
    D3        2.61457   0.00027   0.00463   0.01217   0.01676   2.63134
    D4       -0.36358   0.00025  -0.00004  -0.01376  -0.01371  -0.37729
    D5        1.61335   0.00054   0.00418  -0.01030  -0.00611   1.60725
    D6       -2.60010  -0.00026  -0.00469  -0.01199  -0.01665  -2.61675
    D7        2.09886   0.00006  -0.00217   0.00373   0.00154   2.10041
    D8       -0.00721   0.00000  -0.00005  -0.00018  -0.00022  -0.00743
    D9       -2.11722  -0.00006   0.00207  -0.00426  -0.00216  -2.11938
   D10       -0.14160  -0.00017  -0.00234  -0.00226  -0.00433  -0.14593
   D11       -2.35149   0.00136   0.01036   0.03757   0.04780  -2.30369
   D12        0.15199   0.00010   0.00170  -0.00128   0.00009   0.15208
   D13        2.36902  -0.00114  -0.00979  -0.03884  -0.04837   2.32064
   D14       -2.75311  -0.00098  -0.00868  -0.03309  -0.04130  -2.79441
   D15        1.37815   0.00059   0.00356   0.00386   0.00695   1.38510
   D16        1.14617  -0.00076   0.00242  -0.04490  -0.04272   1.10345
   D17       -2.84755   0.00058  -0.00715   0.00056  -0.00635  -2.85390
   D18        1.94573  -0.00057   0.00528  -0.02797  -0.02292   1.92281
   D19       -1.92197   0.00057  -0.00540   0.02721   0.02204  -1.89993
   D20       -0.49932  -0.00024  -0.00490   0.00182  -0.00297  -0.50229
   D21       -2.91099  -0.00065   0.00346  -0.00422  -0.00107  -2.91206
   D22        0.15659   0.00003   0.00411  -0.01518  -0.01103   0.14556
   D23        2.46540  -0.00100  -0.01302  -0.01724  -0.03041   2.43498
   D24       -0.16099   0.00011  -0.00329   0.01966   0.01637  -0.14462
   D25       -2.45310   0.00106   0.01398   0.02140   0.03554  -2.41756
   D26        0.48052   0.00024   0.00484  -0.00229   0.00244   0.48296
   D27        2.88122   0.00069  -0.00336   0.00383   0.00078   2.88200
         Item               Value     Threshold  Converged?
 Maximum Force            0.003062     0.000450     NO 
 RMS     Force            0.001317     0.000300     NO 
 Maximum Displacement     0.176002     0.001800     NO 
 RMS     Displacement     0.056738     0.001200     NO 
 Predicted change in Energy=-6.975989D-04
 GradGradGradGradGradGradGradGradGradGradGradGradGradGradGradGradGradGrad

                          Input orientation:                          
 ---------------------------------------------------------------------
 Center     Atomic     Atomic              Coordinates (Angstroms)
 Number     Number      Type              X           Y           Z
 ---------------------------------------------------------------------
    1          8             0       -1.548480    1.069030    0.530373
    2          8             0        1.457070   -1.095162   -0.595837
    3          8             0        4.066307   -1.094008   -0.704482
    4          8             0       -4.220426    1.002721    0.859831
    5          8             0        0.403861   -0.548853    1.657388
    6          8             0       -0.044795    0.610918   -1.758254
    7          1             0       -0.426976   -0.058137    1.499036
    8          1             0       -1.414510    1.980378    0.825330
    9          1             0        0.933992   -0.440564   -1.172582
   10          1             0        1.135832   -0.959847    0.361819
   11          1             0        4.487812   -1.752598   -1.273245
   12          1             0        4.610919   -0.299127   -0.784455
   13          1             0       -4.853634    1.007860    0.130068
   14          1             0       -4.661576    0.519885    1.571034
   15          1             0        2.450712   -0.986587   -0.679550
   16          1             0       -0.769647    0.844104   -1.144173
   17          1             0       -2.522143    0.941195    0.614013
   18          1             0       -0.435756    0.516609   -2.636590
   19          1             0        0.236424   -1.175777    2.372993
 ---------------------------------------------------------------------
                    Distance matrix (angstroms):
                    1          2          3          4          5
     1  O    0.000000
     2  O    3.871098   0.000000
     3  O    6.142429   2.611499   0.000000
     4  O    2.692998   6.225274   8.689839   0.000000
     5  O    2.774769   2.546512   4.391940   4.942420   0.000000
     6  O    2.776463   2.552943   4.573660   4.944065   3.634965
     7  H    1.861876   3.002256   5.110589   3.990522   0.977838
     8  H    0.967214   4.441243   6.467731   2.971560   3.224253
     9  H    3.367728   1.017223   3.233807   5.725539   2.881231
    10  H    3.369018   1.019121   3.121327   5.726185   1.543761
    11  H    6.903002   3.174351   0.966901   9.379510   5.168778
    12  H    6.445062   3.258223   0.966868   9.076957   4.870759
    13  H    3.329869   6.691384   9.202156   0.966195   5.691864
    14  H    3.328048   6.688911   9.162891   0.966206   5.177674
    15  H    4.656502   1.003056   1.619355   7.129595   3.137274
    16  H    1.860451   3.003280   5.228389   3.993629   3.341585
    17  H    0.985575   4.630833   7.020552   1.717084   3.445341
    18  H    3.401907   3.216405   5.157102   5.175422   4.503155
    19  H    3.408855   3.210985   4.913811   5.186428   0.966002
                    6          7          8          9         10
     6  O    0.000000
     7  H    3.347184   0.000000
     8  H    3.229002   2.363186   0.000000
     9  H    1.551338   3.022586   3.920214   0.000000
    10  H    2.890656   2.132771   3.919696   1.632415   0.000000
    11  H    5.134780   5.891679   7.292225   3.789618   3.812828
    12  H    4.842741   5.536497   6.640283   3.700059   3.718431
    13  H    5.181530   4.754548   3.640982   6.106672   6.308667
    14  H    5.692725   4.274474   3.637657   6.305574   6.104240
    15  H    3.153281   3.726841   5.099754   1.685723   1.677520
    16  H    0.978203   2.813897   2.363454   2.133908   3.025409
    17  H    3.445866   2.484281   1.533430   4.128686   4.130175
    18  H    0.966032   4.175381   3.884002   2.221645   3.693272
    19  H    4.509830   1.566212   3.883576   3.687579   2.213681
                   11         12         13         14         15
    11  H    0.000000
    12  H    1.538391   0.000000
    13  H    9.841343   9.598038   0.000000
    14  H    9.847101   9.601993   1.533424   0.000000
    15  H    2.255886   2.269384   7.614904   7.610468   0.000000
    16  H    5.865185   5.512428   4.281292   4.756530   3.733365
    17  H    7.743238   7.373920   2.382120   2.381294   5.488072
    18  H    5.590128   5.437348   5.235778   5.963360   3.797539
    19  H    5.630459   5.465729   5.975590   5.244884   3.775828
                   16         17         18         19
    16  H    0.000000
    17  H    2.484329   0.000000
    18  H    1.563983   3.885834   0.000000
    19  H    4.178822   3.896829   5.330283   0.000000
 Stoichiometry    H13O6(1+)
 Framework group  C1[X(H13O6)]
 Deg. of freedom    51
 Full point group                 C1
 Largest Abelian subgroup         C1      NOp   1
 Largest concise Abelian subgroup C1      NOp   1
                         Standard orientation:                         
 ---------------------------------------------------------------------
 Center     Atomic     Atomic              Coordinates (Angstroms)
 Number     Number      Type              X           Y           Z
 ---------------------------------------------------------------------
    1          8             0       -1.859697   -0.008209    0.604102
    2          8             0        1.798869    0.061284   -0.659014
    3          8             0        4.266818   -0.117475    0.175971
    4          8             0       -4.412154   -0.051456   -0.253413
    5          8             0        0.204868   -1.784571    0.073583
    6          8             0        0.138718    1.849749    0.091193
    7          1             0       -0.681869   -1.393354    0.203255
    8          1             0       -2.052093   -0.019226    1.551923
    9          1             0        1.237928    0.865267   -0.387539
   10          1             0        1.267429   -0.766869   -0.393795
   11          1             0        4.963066    0.170473   -0.430019
   12          1             0        4.567636    0.145322    1.056470
   13          1             0       -4.861184    0.707942   -0.647391
   14          1             0       -4.831038   -0.825176   -0.652720
   15          1             0        2.716462    0.066681   -0.253901
   16          1             0       -0.730166    1.420061    0.222685
   17          1             0       -2.753070   -0.021657    0.188093
   18          1             0       -0.025161    2.692566   -0.351550
   19          1             0        0.082685   -2.636610   -0.364893
 ---------------------------------------------------------------------
 Rotational constants (GHZ):      3.4440298      0.5965399      0.5296346
 Standard basis: Aug-CC-pVDZ (5D, 7F)
 There are   255 symmetry adapted basis functions of A   symmetry.
 Integral buffers will be    131072 words long.
 Raffenetti 1 integral format.
 Two-electron integral symmetry is turned on.
   255 basis functions,   401 primitive gaussians,   267 cartesian basis functions
    30 alpha electrons       30 beta electrons
       nuclear repulsion energy       280.2878021107 Hartrees.
 NAtoms=   19 NActive=   19 NUniq=   19 SFac= 7.50D-01 NAtFMM=   80 NAOKFM=F Big=F
 One-electron integrals computed using PRISM.
 NBasis=   255 RedAO= T  NBF=   255
 NBsUse=   255 1.00D-06 NBFU=   255
 Initial guess read from the read-write file:
 Initial guess orbital symmetries:
       Occupied  (A) (A) (A) (A) (A) (A) (A) (A) (A) (A) (A) (A)
                 (A) (A) (A) (A) (A) (A) (A) (A) (A) (A) (A) (A)
                 (A) (A) (A) (A) (A) (A)
       Virtual   (A) (A) (A) (A) (A) (A) (A) (A) (A) (A) (A) (A)
                 (A) (A) (A) (A) (A) (A) (A) (A) (A) (A) (A) (A)
                 (A) (A) (A) (A) (A) (A) (A) (A) (A) (A) (A) (A)
                 (A) (A) (A) (A) (A) (A) (A) (A) (A) (A) (A) (A)
                 (A) (A) (A) (A) (A) (A) (A) (A) (A) (A) (A) (A)
                 (A) (A) (A) (A) (A) (A) (A) (A) (A) (A) (A) (A)
                 (A) (A) (A) (A) (A) (A) (A) (A) (A) (A) (A) (A)
                 (A) (A) (A) (A) (A) (A) (A) (A) (A) (A) (A) (A)
                 (A) (A) (A) (A) (A) (A) (A) (A) (A) (A) (A) (A)
                 (A) (A) (A) (A) (A) (A) (A) (A) (A) (A) (A) (A)
                 (A) (A) (A) (A) (A) (A) (A) (A) (A) (A) (A) (A)
                 (A) (A) (A) (A) (A) (A) (A) (A) (A) (A) (A) (A)
                 (A) (A) (A) (A) (A) (A) (A) (A) (A) (A) (A) (A)
                 (A) (A) (A) (A) (A) (A) (A) (A) (A) (A) (A) (A)
                 (A) (A) (A) (A) (A) (A) (A) (A) (A) (A) (A) (A)
                 (A) (A) (A) (A) (A) (A) (A) (A) (A) (A) (A) (A)
                 (A) (A) (A) (A) (A) (A) (A) (A) (A) (A) (A) (A)
                 (A) (A) (A) (A) (A) (A) (A) (A) (A) (A) (A) (A)
                 (A) (A) (A) (A) (A) (A) (A) (A) (A)
 Harris functional with IExCor=  205 diagonalized for initial guess.
 ExpMin= 2.97D-02 ExpMax= 1.17D+04 ExpMxC= 4.01D+02 IAcc=3 IRadAn=         5 AccDes= 0.00D+00
 HarFok:  IExCor= 205 AccDes= 0.00D+00 IRadAn=         5 IDoV=1
 ScaDFX=  1.000000  1.000000  1.000000  1.000000
 Requested convergence on RMS density matrix=1.00D-08 within 128 cycles.
 Requested convergence on MAX density matrix=1.00D-06.
 Requested convergence on             energy=1.00D-06.
 No special actions if energy rises.
 SCF Done:  E(RHF) =  -456.663111767     A.U. after    9 cycles
             Convg  =    0.9826D-08             -V/T =  2.0016
             S**2   =   0.0000
 ExpMin= 2.97D-02 ExpMax= 1.17D+04 ExpMxC= 4.01D+02 IAcc=3 IRadAn=         5 AccDes= 0.00D+00
 HarFok:  IExCor= 205 AccDes= 0.00D+00 IRadAn=         5 IDoV=1
 ScaDFX=  1.000000  1.000000  1.000000  1.000000
 Range of M.O.s used for correlation:     7   255
 NBasis=   255 NAE=    30 NBE=    30 NFC=     6 NFV=     0
 NROrb=    249 NOA=    24 NOB=    24 NVA=   225 NVB=   225

 **** Warning!!: The largest alpha MO coefficient is  0.10387866D+02

 Fully direct method using O(ONN) memory.
 JobTyp=1 Pass  1:  I=   7 to  10 NPSUse=  4 ParTrn=T ParDer=T DoDerP=T.
 JobTyp=1 Pass  2:  I=  11 to  14 NPSUse=  4 ParTrn=T ParDer=T DoDerP=T.
 JobTyp=1 Pass  3:  I=  15 to  18 NPSUse=  4 ParTrn=T ParDer=T DoDerP=T.
 JobTyp=1 Pass  4:  I=  19 to  22 NPSUse=  4 ParTrn=T ParDer=T DoDerP=T.
 JobTyp=1 Pass  5:  I=  23 to  26 NPSUse=  4 ParTrn=T ParDer=T DoDerP=T.
 JobTyp=1 Pass  6:  I=  27 to  30 NPSUse=  4 ParTrn=T ParDer=T DoDerP=T.
 Spin components of T(2) and E(2):
     alpha-alpha T2 =       0.4681995879D-01 E2=     -0.1728202454D+00
     alpha-beta  T2 =       0.2586834009D+00 E2=     -0.9931113146D+00
     beta-beta   T2 =       0.4681995879D-01 E2=     -0.1728202454D+00
 ANorm=    0.1162894371D+01
 E2 =    -0.1338751805D+01 EUMP2 =    -0.45800186357243D+03
 DoAtom=TTTTTTTTTTTTTTTTTTT
          Differentiating once with respect to electric field.
                with respect to dipole field.
          Differentiating once with respect to nuclear coordinates.
          There are   1 degrees of freedom in the 1st order CPHF.
 Petite list used in FoFDir.
 MinBra= 0 MaxBra= 2 Meth= 1.
 IRaf=       0 NMat=   1 IRICut=       1 DoRegI=T DoRafI=F ISym2E= 1 JSym2E=1.
     1 vectors were produced by pass  0.
 AX will form   1 AO Fock derivatives at one time.
     1 vectors were produced by pass  1.
     1 vectors were produced by pass  2.
     1 vectors were produced by pass  3.
     1 vectors were produced by pass  4.
     1 vectors were produced by pass  5.
     1 vectors were produced by pass  6.
     1 vectors were produced by pass  7.
     1 vectors were produced by pass  8.
     1 vectors were produced by pass  9.
     1 vectors were produced by pass 10.
     1 vectors were produced by pass 11.
     1 vectors were produced by pass 12.
 Inv2:  IOpt= 1 Iter= 1 AM= 4.05D-16 Conv= 1.00D-12.
 Inverted reduced A of dimension   13 with in-core refinement.
 End of Minotr Frequency-dependent properties file   721 does not exist.
 ***** Axes restored to original set *****
 -------------------------------------------------------------------
 Center     Atomic                   Forces (Hartrees/Bohr)
 Number     Number              X              Y              Z
 -------------------------------------------------------------------
    1          8           0.001856531   -0.001376904   -0.000764282
[...]
 894,0.00027591,-0.00031651,0.00005744,0.00004069,0.46979322,-0.0035797
 8,0.00332518,-0.00068444,-0.00004086,0.00019262,-0.00008958,0.00001313
 ,0.00005509,0.00000122,-0.06608826,0.09272699,0.00204452,-0.00068056,0
 .00590842,0.00012822,-0.00014054,0.00040318,0.00005618,-0.00000502,0.0
 0004658,0.00390767,-0.21491471,0.60969843,-0.00394211,0.00946859,-0.00
 552321,-0.00389237,0.00138031,0.02707440,-0.00113154,-0.00013841,0.000
 21787,-0.00106965,-0.00003668,-0.00014304,0.37583704,0.01072700,-0.005
 90153,0.00652257,0.00318174,0.00881675,-0.01041291,0.00093798,0.000433
 71,-0.00006737,0.00129000,0.00071661,-0.00011597,-0.14684715,0.4087938
 2,-0.00469404,0.00400107,0.00266173,0.02489430,-0.00815168,-0.03710272
 ,0.00321224,0.00035873,0.00051012,-0.00040131,-0.00017372,0.00048944,-
 0.08088704,-0.28753291,0.38132450,-0.00003833,0.00284410,0.00948627,-0
 .01617262,0.02270957,-0.02118280,-0.00180992,-0.00019467,-0.00003915,-
 0.00076756,-0.00017686,0.00041603,0.00275972,-0.00178136,-0.00192266,0
 .40264538,0.00371319,0.00305529,-0.00703879,0.02336223,-0.01399087,0.0
 1900649,0.00249955,0.00073816,-0.00021794,0.00067113,0.00053740,-0.000
 02316,-0.00205427,0.00229842,0.00239429,-0.11427612,0.09780105,0.00932
 135,-0.00425573,-0.01030096,-0.01820293,0.01704745,-0.00151691,-0.0013
 4397,-0.00040509,0.00066731,0.00144221,0.00030319,0.00037792,-0.000540
 78,0.00081448,-0.00092007,0.03590646,0.12401344,0.66298194,-0.00333019
 ,-0.00643571,0.00372936,0.00131040,0.00029962,-0.00345465,0.00040252,0
 .00001166,-0.00017476,0.00143259,0.00029567,0.00009882,-0.28642435,0.2
 1764685,-0.05415644,-0.00210513,0.00142556,0.00070514,0.28178292,-0.00
 838039,-0.00306988,-0.00570540,-0.00161082,-0.00058217,0.00448767,-0.0
 0058938,-0.00017745,0.00020576,-0.00194150,-0.00108010,0.00038222,0.17
 980823,-0.17721534,0.06667840,0.00183383,-0.00239097,-0.00105182,-0.19
 750406,0.19365273,0.00172923,-0.00167266,-0.00520541,-0.00000415,0.001
 24896,-0.00800348,0.00002542,0.00006093,-0.00015838,0.00114044,0.00047
 045,-0.00044041,-0.02188743,0.04746508,-0.05370721,-0.00114271,0.00078
 750,0.00133594,0.04113115,-0.05917899,0.05827417,-0.05499178,-0.035388
 60,-0.00674619,-0.00023828,-0.00005521,-0.00006190,-0.00003259,-0.0001
 1323,-0.00004833,-0.00131285,0.00113410,0.00053950,-0.00186279,0.00042
 243,-0.00112731,-0.00128544,-0.00023096,0.00125546,0.00300898,0.000927
 76,0.00248642,0.05816454,-0.08382446,-0.45455832,-0.14464694,-0.000332
 47,0.00013327,0.00026366,-0.00015255,-0.00002546,0.00002054,0.00100679
 ,0.00025479,-0.00004253,-0.00056623,0.00110666,0.00054994,-0.00134230,
 0.00051802,0.00129047,0.00034167,-0.00340450,-0.00118565,0.07572481,0.
 46568492,-0.02362764,-0.15063170,-0.05974831,-0.00014633,0.00022026,-0
 .00039782,-0.00006298,0.00002505,-0.00004779,0.00051086,-0.00007150,-0
 .00007650,-0.00156284,0.00026606,-0.00115489,0.00096474,0.00125751,-0.
 00119387,0.00241376,0.00096228,0.00213917,0.02024465,0.15007559,0.0583
 2972,0.00048567,0.00023437,-0.00406235,-0.11252139,0.07211403,-0.04471
 013,0.00197902,-0.00083407,0.00035464,0.00049868,0.00015671,-0.0003829
 5,-0.00513436,0.00348636,0.00404580,0.00263392,-0.01121136,0.00759465,
 0.00181852,-0.00178564,0.00275035,0.00036685,0.00014208,0.00038460,0.1
 1430066,-0.00110942,-0.00076549,0.00451090,0.09141884,-0.14928494,0.11
 006540,-0.00532694,-0.00148509,0.00086038,-0.00056803,-0.00033324,0.00
 033416,0.00443407,-0.00392309,-0.00445022,-0.00699523,-0.00843144,-0.0
 0683580,-0.00151912,0.00269671,-0.00231769,-0.00003315,-0.00017986,-0.
 00046897,-0.07110236,0.13771417,0.00004345,0.00058197,-0.00370965,-0.0
 4846574,0.08992348,-0.12402438,0.00413952,0.00134222,-0.00108469,0.000
 12735,0.00012778,-0.00029911,-0.00126621,-0.00017694,0.00369711,0.0100
 5606,-0.00995092,-0.01901370,0.00208015,-0.00208548,-0.00009574,0.0001
 0840,0.00006884,0.00031308,0.05262658,-0.08982261,0.15062875,0.0009803
 4,-0.00160916,0.00205142,-0.08374912,0.01885705,0.04793134,0.00023620,
 -0.00055865,-0.00071901,0.00047140,-0.00006139,0.00018469,-0.00361929,
 -0.00028301,-0.01406057,-0.00460009,0.00378162,0.00079505,-0.00478427,
 0.00531056,0.00194234,0.00025780,0.00027993,-0.00020975,0.01604441,-0.
 01100431,-0.01343803,0.08542887,-0.00103766,0.00036692,-0.00074272,0.0
 2680162,-0.03849696,-0.04874907,-0.00156660,-0.00035895,-0.00033163,-0
 .00035005,-0.00013015,-0.00007393,0.00365880,-0.02058533,0.00407691,0.
 00224670,-0.00274052,-0.00156341,0.00169968,-0.00248157,-0.00320356,0.
 00009788,-0.00016137,0.00004470,-0.01168709,0.00723067,0.02153973,-0.0
 1677862,0.05250857,-0.00231584,0.00309551,-0.00538404,0.06136727,-0.02
 531690,-0.26056129,-0.00744844,-0.00075825,-0.00108898,-0.00068409,0.0
 0000723,-0.00047921,-0.01387938,0.00831211,-0.00084112,0.00596552,-0.0
 0598415,0.00194417,0.00408298,-0.00694493,0.01333041,-0.00003478,-0.00
 055347,0.00039422,-0.00586826,0.00611091,-0.02254013,-0.05115027,0.014
 08113,0.26187387,0.00004747,-0.00001857,-0.00004182,-0.00390129,-0.001
 47090,-0.00050478,-0.20387579,0.21311009,0.12732109,0.00002724,-0.0000
 0505,-0.00001105,0.00004792,-0.00003846,-0.00001986,0.00006024,-0.0000
 0482,-0.00013569,-0.00001426,0.00002019,-0.00000740,-0.00000542,0.0000
 0754,0.00000910,-0.00013204,-0.00020107,0.00024615,-0.00010274,-0.0000
 5829,-0.00004307,0.19306865,-0.00013599,0.00001447,0.00005974,-0.00441
 701,-0.00095336,0.00028494,0.16239569,-0.28507718,-0.13067261,-0.00006
 534,-0.00002578,0.00000733,-0.00017132,-0.00000756,0.00032705,-0.00024
 440,0.00017085,-0.00007316,0.00005291,-0.00003633,-0.00000234,0.000027
 59,-0.00001111,-0.00001469,0.00029932,-0.00038045,0.00023548,0.0003683
 0,0.00006251,-0.00070910,-0.19312158,0.30775992,-0.00004455,0.00002834
 ,-0.00007550,-0.00157506,-0.00061859,0.00031574,0.11936741,-0.15497525
 ,-0.08412608,-0.00001908,-0.00000035,-0.00001956,-0.00007681,0.0001038
 2,-0.00008606,-0.00003458,0.00003353,-0.00020960,0.00006433,-0.0000666
 9,0.00004969,0.00001237,-0.00000693,0.00001339,0.00033671,0.00003167,0
 .00036678,-0.00017966,-0.00024560,0.00014947,-0.12081583,0.14771251,0.
 08392326,0.00014338,0.00002372,-0.00008297,-0.00451755,0.00149182,0.00
 006805,-0.18050633,-0.23758086,0.02865991,0.00006098,0.00001358,-0.000
 01310,0.00000167,0.00016412,0.00013930,0.00005782,0.00033370,-0.000233
 79,-0.00003995,-0.00005144,0.00003362,-0.00005923,0.00001238,0.0000281
 2,-0.00054657,-0.00101972,0.00064742,-0.00029351,-0.00022551,-0.000477
 66,0.01050849,0.02787242,0.00117646,0.16892546,-0.00001814,-0.00013332
 ,0.00001772,0.00481236,-0.00044978,-0.00072561,-0.18714243,-0.38312233
 ,0.01058560,-0.00000207,-0.00003429,-0.00000117,0.00021385,-0.00031602
 ,-0.00036916,0.00019349,-0.00055784,0.00017518,-0.00005697,0.00018874,
 -0.00005897,0.00007887,0.00004426,-0.00001423,-0.00041217,0.00091365,-
 0.00056037,-0.00021147,0.00029989,0.00084343,-0.02423720,-0.02420537,0
 .00655062,0.21411668,0.40613102,-0.00005024,0.00001032,-0.00017734,0.0
 0022536,-0.00029032,0.00052173,0.04033433,0.03520849,-0.01017809,-0.00
 001300,-0.00000388,-0.00003027,-0.00011908,-0.00010217,-0.00025848,0.0
 0019572,-0.00005242,-0.00025482,0.00010532,-0.00006084,0.00008514,0.00
 004875,-0.00000359,0.00004277,-0.00008419,0.00003157,0.00017830,-0.000
 23251,0.00036920,0.00052980,-0.00899581,-0.01749357,0.00045707,-0.0303
 7015,-0.01753910,0.01036197,-0.00149021,-0.00139195,0.00106592,0.00011
 829,-0.00007522,0.00007076,0.00005199,-0.00000731,0.00000196,-0.278053
 89,0.12543060,-0.23287216,0.00003268,-0.00002032,0.00004189,0.00022476
 ,-0.00006742,0.00009455,-0.00005211,0.00002580,-0.00003233,-0.00054667
 ,0.00011342,-0.00003479,-0.00015784,0.00015297,-0.00010802,-0.00000702
 ,-0.00000155,-0.00003092,-0.00000629,0.00000982,0.00000016,-0.00000946
 ,0.00000031,-0.00000356,0.26767518,-0.00212038,-0.00053811,0.00107601,
 -0.00004945,-0.00002539,0.00000602,-0.00003719,-0.00001841,-0.00000093
 ,0.10708560,-0.06264074,0.12180076,-0.00003746,-0.00003436,-0.00002918
 ,-0.00007876,-0.00016440,0.00008003,-0.00000716,0.00001541,0.00001117,
 -0.00021748,0.00022403,-0.00026073,0.00002652,0.00003370,0.00000041,0.
 00002828,0.00001775,0.00000285,0.00000548,0.00000519,0.00000082,0.0000
 0125,0.00001522,0.00000157,-0.11763230,0.06496125,0.00267041,0.0006970
 2,-0.00078474,0.00000620,0.00003918,-0.00022249,0.00000743,-0.00000248
 ,-0.00002917,-0.17726146,0.11170449,-0.23007022,0.00021237,-0.00014854
 ,-0.00008307,-0.00010151,-0.00001093,-0.00038258,-0.00025035,0.0001612
 2,-0.00007193,0.00000529,0.00004462,0.00000556,0.00012727,-0.00012061,
 0.00014768,-0.00014329,0.00006669,0.00028264,0.00000361,0.00000225,0.0
 0001294,0.00000097,0.00000067,0.00001742,0.21156928,-0.12472354,0.2523
 5358,-0.00258313,-0.00052546,-0.00144772,0.00007511,0.00001508,-0.0001
 6934,0.00004165,-0.00000026,-0.00001492,-0.17036585,-0.05539420,0.2286
 0162,0.00018783,0.00007873,-0.00023719,-0.00003094,0.00004659,-0.00003
 379,-0.00013842,-0.00025961,0.00028927,-0.00048713,0.00002124,0.000220
 82,0.00004641,-0.00006820,0.00005707,-0.00013355,0.00004316,0.00025859
 ,-0.00000407,0.00000586,0.00000651,-0.00000425,-0.00000373,0.00000727,
 0.01048559,0.01008302,-0.03273179,0.15896775,-0.00009295,0.00020004,-0
 .00035300,0.00000614,-0.00008334,0.00009851,-0.00001434,-0.00002485,0.
 00000506,-0.03509206,-0.02710819,0.09080500,-0.00007436,-0.00023258,0.
 00005858,0.00011440,-0.00013891,-0.00004886,-0.00006020,0.00031839,-0.
 00008699,-0.00012525,0.00001671,0.00033610,-0.00010108,0.00014853,-0.0
 0008549,0.00006168,0.00003205,-0.00009777,0.00000320,0.00001107,-0.000
 00310,-0.00000353,0.00001603,-0.00000016,-0.00955740,-0.00287574,0.013
 88940,0.04517381,0.03037931,-0.00317292,0.00000193,-0.00044918,-0.0000
 9597,0.00006599,-0.00012528,-0.00004877,0.00000476,-0.00001801,0.17373
 097,0.10115164,-0.37331008,-0.00009269,0.00012751,-0.00028434,-0.00018
 419,0.00008072,0.00007227,0.00020602,-0.00027010,0.00032516,0.00003394
 ,-0.00003700,0.00017618,0.00016592,-0.00014399,0.00010356,-0.00002052,
 0.00000686,0.00012954,0.00000642,-0.00000720,0.00000804,0.00000957,0.0
 0000085,0.00001286,0.02320938,0.00407777,-0.02302162,-0.19861328,-0.10
 525979,0.39565334,0.00118025,-0.00088383,-0.00047444,-0.33348837,-0.04
 272230,0.01855800,0.00103916,0.00396079,-0.00286567,0.00062972,-0.0000
 4162,-0.00009543,0.00275714,-0.00228177,-0.00770656,0.00399188,-0.0055
 1618,0.00328468,-0.00089395,0.00135448,-0.00004380,0.00012483,0.000348
 59,0.00010757,-0.01363572,0.00506921,-0.00694126,-0.00573289,0.0003497
 6,0.01377356,0.00442472,0.00695148,0.00175965,0.00652805,-0.00736291,-
 0.00098175,-0.00009950,0.00007778,-0.00002685,-0.00008642,0.00003386,0
 .00009157,0.33355825,-0.00014863,-0.00008417,-0.00000928,-0.07117937,-
 0.04047722,0.01948297,0.00225528,-0.01892455,-0.00315693,-0.00003954,-
 0.00003636,-0.00000428,0.00022567,-0.00022902,-0.00117045,0.00134907,-
 0.00309365,0.00230302,0.00001553,0.00021551,0.00010247,0.00012538,-0.0
 0000649,-0.00002500,0.02031144,0.00837007,-0.00870435,0.00556462,-0.00
 182535,0.00071113,0.00593077,0.00252251,0.00143300,-0.00513585,0.00105
 732,-0.00016178,0.00000020,0.00001196,0.00000722,-0.00000095,0.0000155
 7,-0.00000181,0.04092925,0.05277841,-0.00018630,0.00007781,0.00002560,
 0.00841007,0.01557476,-0.06570350,-0.00528289,-0.00336302,-0.00590209,
 -0.00008566,-0.00000356,-0.00000557,0.00021406,-0.00097477,-0.00403851
 ,-0.00136389,0.00312808,-0.00215302,-0.00003591,-0.00011735,0.00010355
 ,0.00003458,-0.00004873,-0.00000089,-0.01628183,-0.01228930,0.00670586
 ,0.03031591,0.00733289,0.00904611,0.00285805,0.00042375,-0.00094421,0.
 00028825,0.00104349,-0.00162710,0.00001181,-0.00000612,0.00001339,0.00
 001067,-0.00000141,-0.00000340,-0.01902864,-0.01071067,0.06458891,-0.0
 0560685,-0.00256296,-0.00612586,0.00140556,-0.00070002,0.00063420,0.00
 039682,-0.00006645,0.00005118,0.00093078,0.00029765,-0.00031932,-0.001
 58290,0.00086024,0.00077402,-0.22473495,0.10490442,0.19760488,0.002593
 81,-0.00177841,0.00001395,0.00199323,0.00165078,-0.00185399,-0.0044726
 7,0.00172045,0.00212279,0.00050405,0.00063720,-0.00215113,-0.00003113,
 0.00007221,-0.00001809,-0.00009350,0.00001712,-0.00004861,-0.00022900,
 0.00004600,-0.00004416,0.00000976,-0.00015447,0.00016137,-0.00074775,-
 0.00008086,0.00020571,0.21941847,-0.00438513,-0.00807966,0.00457809,-0
 .00083667,-0.00071115,0.00157538,-0.00045174,-0.00007208,-0.00006447,-
 0.00076864,-0.00046196,-0.00020179,0.00047768,-0.00096430,-0.00096428,
 0.09052329,-0.05698199,-0.09467818,-0.00118752,0.00205783,0.00094214,0
 .00165309,-0.00110904,-0.00429461,0.00402274,-0.00101490,-0.00555117,0
 .00076997,-0.00042499,0.00150343,0.00002137,-0.00003581,0.00001170,0.0
 0000172,0.00009685,0.00007127,-0.00001394,0.00013876,0.00011884,-0.000
 01992,0.00006268,-0.00003548,0.00100754,0.00024304,-0.00002198,-0.0948
 4600,0.06756259,-0.00544009,0.00008359,0.00196230,-0.00351115,0.004579
 00,-0.00786654,-0.00061514,0.00002273,-0.00029813,-0.00253252,-0.00070
 055,-0.00056581,0.00261635,-0.00278936,-0.00061712,0.14758287,-0.08276
 353,-0.23389864,-0.00274270,0.00374195,-0.00320933,-0.00174438,-0.0021
 1682,0.00091316,0.00625206,-0.00848767,0.01130522,-0.00283908,0.001696
 90,0.00440993,0.00007817,-0.00009900,0.00007313,0.00009862,0.00005771,
 0.00023016,-0.00020990,-0.00010328,0.00058694,0.00000277,0.00014665,-0
 .00016455,0.00109930,0.00005179,-0.00007287,-0.17052997,0.09440985,0.2
 4526755,-0.41456127,-0.07480750,0.02296798,0.00110667,-0.00071504,-0.0
 0043078,0.00051079,-0.00011634,-0.00006724,-0.00139730,-0.00156375,-0.
 00205061,0.00272125,-0.00283052,0.00054447,0.00223286,-0.00185883,-0.0
 0323336,-0.00463644,0.00432416,-0.00194440,-0.00282032,0.00642643,0.00
 254936,-0.00087612,0.00109404,-0.00030351,-0.00074164,0.00063023,0.001
 18650,-0.00004188,0.00011366,0.00002991,-0.00010902,0.00001680,0.00002
 368,0.00219937,0.00276122,-0.00419955,0.00419679,-0.00025528,0.0046509
 4,-0.00100522,0.00008496,0.00014251,-0.00325492,0.00225664,0.00578538,
 0.41586298,-0.02425465,-0.05712898,-0.01059738,0.00020146,-0.00030824,
 -0.00002689,0.00007732,-0.00004865,-0.00000920,-0.00171607,-0.00568409
 ,0.00297766,0.00058074,-0.00273692,0.00124429,0.00027410,-0.00095788,-
 0.00149220,0.00045595,0.00438277,-0.00243477,-0.04388118,-0.00859605,0
 .00252960,-0.00023305,0.00052204,-0.00005970,-0.00006245,0.00031759,0.
 00018832,-0.00000447,0.00003294,0.00000431,-0.00002901,0.00001807,0.00
 000426,0.00299394,0.00072305,-0.00171986,0.00072773,-0.00084254,0.0001
 8328,-0.00014443,0.00003067,0.00002560,-0.00009994,0.00103823,0.002805
 07,0.06408790,0.06926809,0.04058994,-0.00432389,-0.02479073,-0.0001109
 6,0.00009189,-0.00026988,-0.00004475,0.00000673,-0.00002277,-0.0021575
 1,0.00295039,-0.01168242,-0.00021334,0.00122106,-0.00085478,-0.0005439
 1,-0.00079129,-0.00217945,-0.00105752,-0.00211459,0.00097242,-0.014981
 99,-0.00369709,0.00031728,0.00029550,-0.00023108,0.00023165,-0.0001180
 3,0.00010153,0.00030319,0.00000717,-0.00000770,0.00001054,0.00000844,-
 0.00000039,0.00001484,-0.00286479,-0.00192262,0.00125581,0.00379977,0.
 00054424,0.00081914,0.00007701,-0.00000029,-0.00000747,0.00272171,0.00
 170385,0.00297987,-0.02563077,0.00635717,0.03341516,-0.00187383,0.0004
 4081,0.00165983,-0.00107937,0.00266806,-0.00084817,-0.00011096,-0.0000
 6248,0.00021210,-0.00018162,-0.00008108,-0.00030011,0.00005984,-0.0000
 9486,-0.00005215,-0.16310936,-0.00537400,-0.23429920,-0.00008955,0.000
 12162,-0.00019087,-0.00011925,0.00003534,0.00006257,-0.00048286,-0.005
 13754,-0.00153710,-0.00012445,0.00001152,0.00026106,-0.00005692,0.0000
 2857,-0.00007492,-0.00005529,0.00001811,-0.00009605,-0.00013041,0.0000
 4177,0.00019690,0.00000643,-0.00000839,0.00003911,0.00060658,-0.000006
 25,-0.00028973,0.01351455,0.00178435,0.02646188,0.00042986,0.00028983,
 0.00066857,0.15276225,0.00070941,-0.00010817,-0.00024321,0.00458053,-0
 .00533571,0.00226196,0.00016216,-0.00001614,-0.00007705,0.00002848,-0.
 00017323,-0.00001727,-0.00014895,-0.00008750,0.00013500,0.00311835,-0.
 01577507,-0.03537067,0.00007634,0.00002435,-0.00005381,-0.00012377,0.0
 0014440,-0.00012075,-0.00365096,0.00845815,0.00257140,0.00003219,0.000
 21892,-0.00061816,0.00004378,0.00004823,0.00004554,0.00002442,0.000032
 97,-0.00001609,0.00003318,0.00013126,-0.00002594,0.00000091,0.00002692
 ,0.00001769,-0.00031831,-0.00050925,0.00030863,-0.00992238,-0.00128978
 ,-0.01070974,0.00000357,0.00018233,-0.00022391,0.00532353,0.01397735,0
 .00088339,-0.00009258,0.00041117,0.00202040,-0.00217543,0.00182053,0.0
 0036713,-0.00000248,-0.00014199,-0.00021829,-0.00000474,0.00012227,0.0
 0010995,-0.00001067,0.00029006,-0.18390243,-0.04376746,-0.39548104,-0.
 00015799,0.00007244,-0.00018978,0.00005929,-0.00012193,-0.00013507,-0.
 00358017,0.00321275,-0.00313116,0.00007925,-0.00002626,-0.00035532,0.0
 0001883,0.00003470,0.00007045,-0.00002045,-0.00001354,0.00004930,0.000
 09856,-0.00003228,0.00000894,0.00000253,0.00001770,-0.00003526,-0.0008
 3734,0.00012091,0.00029712,-0.02334222,0.00085153,-0.02082484,0.000359
 14,-0.00016249,-0.00057909,0.20810622,0.04206680,0.41788729,-0.0021738
 3,0.00114663,-0.00043436,-0.00076621,0.00142733,0.00285419,-0.00028241
 ,0.00007960,-0.00016983,-0.00005634,-0.00027191,0.00021053,-0.07574572
 ,-0.08461800,0.13161311,0.00004775,-0.00014402,0.00001908,0.01015888,0
 .02017462,-0.02628909,-0.00015448,0.00010701,0.00000216,-0.00021456,0.
 00019549,-0.00019505,-0.00003452,-0.00447118,-0.00281166,-0.00001289,-
 0.00004219,0.00008506,0.00000882,-0.00002049,0.00005451,-0.00000547,0.
 00002326,-0.00004077,-0.00018356,0.00014621,-0.00007686,0.00084924,-0.
 00020074,0.00006323,-0.00001335,-0.00000883,0.00018751,0.00018357,0.00
 073628,-0.00044455,0.00003437,0.00002752,-0.00004579,0.06836070,0.0008
 7828,0.00008290,-0.00039677,0.00364979,-0.00212162,-0.00649623,0.00038
 387,-0.00009486,0.00003239,-0.00013452,-0.00010054,-0.00008619,-0.0501
 7311,-0.20993241,0.22301733,-0.00011721,0.00010435,-0.00025232,-0.0155
 5070,-0.01311414,0.01910672,-0.00002309,-0.00007484,0.00018504,0.00022
 421,-0.00028918,0.00060571,-0.00448516,0.00615033,0.00612669,0.0000179
 9,0.00010525,-0.00003936,-0.00000989,0.00000493,0.00002723,0.00000716,
 0.00001957,0.00002032,0.00007620,0.00007886,0.00003636,-0.00081138,-0.
 00005899,-0.00037810,0.00000541,-0.00005431,0.00017472,0.00034765,-0.0
 0021242,0.00033597,0.00000108,0.00004998,0.00003303,0.06571341,0.21945
 716,0.00040285,-0.00057654,0.00056693,0.00125380,-0.00147425,-0.001765
 68,-0.00014856,0.00000735,-0.00001123,0.00022249,-0.00006935,-0.000067
 07,0.09574687,0.23749891,-0.28902460,-0.00015582,-0.00010097,0.0001251
 0,0.00741330,0.00090425,-0.00553399,-0.00008377,0.00014703,0.00011060,
 0.00003580,0.00001023,0.00022058,-0.00018927,0.00561965,-0.00114325,0.
 00002671,-0.00000837,0.00001051,0.00003941,0.00000728,0.00002474,-0.00
 000780,0.00002126,-0.00001906,-0.00000886,0.00003533,0.00011163,0.0002
 5038,-0.00026768,-0.00032194,0.00014353,0.00004590,-0.00021043,-0.0003
 7966,0.00018293,0.00006669,0.00002005,0.00006957,-0.00008359,-0.104581
 42,-0.24205253,0.29694405\\-0.00000349,0.00001311,0.00001853,0.0000064
 9,0.00004253,0.00005269,0.00001998,0.00000227,0.00003416,0.00000271,0.
 00000300,0.00000823,-0.00000205,0.00001384,-0.00000052,0.00000316,0.00
 001452,0.00001049,-0.00000171,-0.00000711,0.00000277,0.00000200,-0.000
 00544,-0.00000286,0.00000215,-0.00001900,-0.00000222,0.00000449,-0.000
 01913,-0.00000598,-0.00000471,-0.00000285,-0.00000129,-0.00001063,0.00
 000714,0.00000094,-0.00000416,0.00000018,-0.00000710,-0.00000293,-0.00
 000496,0.00000591,-0.00001282,-0.00002695,-0.00008300,-0.00000761,-0.0
 0000749,-0.00000954,0.00001116,0.00000102,-0.00001969,-0.00000110,-0.0
 0000185,-0.00000138,-0.00000093,-0.00000283,-0.00000014\\\@


 NEVER TEACH A PIG TO SING.
 IT WASTES YOUR TIME AND ANNOYS THE PIG.
     -- SEEN ON A GREETING CARD
 Job cpu time:  0 days  9 hours 56 minutes  4.1 seconds.
 File lengths (MBytes):  RWF=  17900 Int=      0 D2E=      0 Chk=     11 Scr=      1
 Normal termination of Gaussian 03 at Tue May 11 06:09:35 2010.
