 Entering Gaussian System, Link 0=g03
 Initial command:
 /usr/local/g03-em64t/g03/l1.exe /usr/scratch/NQCaaa-bbb1/Gau-19201.inp -scrdir=/usr/scratch/NQCaaa-bbb1/
 Entering Link 1 = /usr/local/g03-em64t/g03/l1.exe PID=     19202.
  
 Copyright (c) 1988,1990,1992,1993,1995,1998,2003,2004, Gaussian, Inc.
                  All Rights Reserved.
  
 This is the Gaussian(R) 03 program.  It is based on the
 the Gaussian(R) 98 system (copyright 1998, Gaussian, Inc.),
 the Gaussian(R) 94 system (copyright 1995, Gaussian, Inc.),
 the Gaussian 92(TM) system (copyright 1992, Gaussian, Inc.),
 the Gaussian 90(TM) system (copyright 1990, Gaussian, Inc.),
 the Gaussian 88(TM) system (copyright 1988, Gaussian, Inc.),
 the Gaussian 86(TM) system (copyright 1986, Carnegie Mellon
 University), and the Gaussian 82(TM) system (copyright 1983,
 Carnegie Mellon University). Gaussian is a federally registered
 trademark of Gaussian, Inc.
  
 This software contains proprietary and confidential information,
 including trade secrets, belonging to Gaussian, Inc.
  
 This software is provided under written license and may be
 used, copied, transmitted, or stored only in accord with that
 written license.
  
 The following legend is applicable only to US Government
 contracts under FAR:
  
                    RESTRICTED RIGHTS LEGEND
  
 Use, reproduction and disclosure by the US Government is
 subject to restrictions as set forth in subparagraphs (a)
 and (c) of the Commercial Computer Software - Restricted
 Rights clause in FAR 52.227-19.
  
 Gaussian, Inc.
 340 Quinnipiac St., Bldg. 40, Wallingford CT 06492
  
  
 ---------------------------------------------------------------
 Warning -- This program may not be used in any manner that
 competes with the business of Gaussian, Inc. or will provide
 assistance to any competitor of Gaussian, Inc.  The licensee
 of this program is prohibited from giving any competitor of
 Gaussian, Inc. access to this program.  By using this program,
 the user acknowledges that Gaussian, Inc. is engaged in the
 business of creating and licensing software in the field of
 computational chemistry and represents and warrants to the
 licensee that it is not a competitor of Gaussian, Inc. and that
 it will not use this program in any manner prohibited above.
 ---------------------------------------------------------------
  

 Cite this work as:
 Gaussian 03, Revision D.01,
 M. J. Frisch, G. W. Trucks, H. B. Schlegel, G. E. Scuseria, 
 M. A. Robb, J. R. Cheeseman, J. A. Montgomery, Jr., T. Vreven, 
 K. N. Kudin, J. C. Burant, J. M. Millam, S. S. Iyengar, J. Tomasi, 
 V. Barone, B. Mennucci, M. Cossi, G. Scalmani, N. Rega, 
 G. A. Petersson, H. Nakatsuji, M. Hada, M. Ehara, K. Toyota, 
 R. Fukuda, J. Hasegawa, M. Ishida, T. Nakajima, Y. Honda, O. Kitao, 
 H. Nakai, M. Klene, X. Li, J. E. Knox, H. P. Hratchian, J. B. Cross, 
 V. Bakken, C. Adamo, J. Jaramillo, R. Gomperts, R. E. Stratmann, 
 O. Yazyev, A. J. Austin, R. Cammi, C. Pomelli, J. W. Ochterski, 
 P. Y. Ayala, K. Morokuma, G. A. Voth, P. Salvador, J. J. Dannenberg, 
 V. G. Zakrzewski, S. Dapprich, A. D. Daniels, M. C. Strain, 
 O. Farkas, D. K. Malick, A. D. Rabuck, K. Raghavachari, 
 J. B. Foresman, J. V. Ortiz, Q. Cui, A. G. Baboul, S. Clifford, 
 J. Cioslowski, B. B. Stefanov, G. Liu, A. Liashenko, P. Piskorz, 
 I. Komaromi, R. L. Martin, D. J. Fox, T. Keith, M. A. Al-Laham, 
 C. Y. Peng, A. Nanayakkara, M. Challacombe, P. M. W. Gill, 
 B. Johnson, W. Chen, M. W. Wong, C. Gonzalez, and J. A. Pople, 
 Gaussian, Inc., Wallingford CT, 2004.
 
 ******************************************
 Gaussian 03:  AM64L-G03RevD.01 13-Oct-2005
                13-Apr-2005 
 ******************************************
 %chk=W1.chk
 %mem=6MW
 %nproc=2
 Will use up to    2 processors via shared memory.
 --------------------------------------------
 # opt freq mp2/aug-cc-pvDZ geom=connectivity
 --------------------------------------------
 1/18=20,38=1,57=2/1,3;
 2/9=110,17=6,18=5,40=1/2;
 3/5=16,7=10,11=9,16=1,25=1,30=1/1,2,3;
 4//1;
 5/5=2,38=5/2;
 8/6=4,10=1/1;
 9/15=2,16=-3/6;
 10/5=1/2;
 6/7=2,8=2,9=2,10=2/1;
 7/12=2/1,2,3,16;
 1/18=20/3(3);
 2/9=110/2;
 6/7=2,8=2,9=2,10=2/1;
 99//99;
 2/9=110/2;
 3/5=16,7=10,11=9,16=1,25=1,30=1/1,2,3;
 4/5=5,16=3/1;
 5/5=2,38=5/2;
 8/6=4,10=1/1;
 9/15=2,16=-3/6;
 10/5=1/2;
 7/12=2/1,2,3,16;
 1/18=20/3(-8);
 2/9=110/2;
 6/7=2,8=2,9=2,10=2/1;
 99//99;
 -------------------
 Title Card Required
 -------------------
 Symbolic Z-matrix:
 Charge =  0 Multiplicity = 1
 O
 H                    1    B1
 H                    1    B2       2    A1
       Variables:
  B1                    0.96                     
  B2                    0.96                     
  A1                  109.5                      
 

 GradGradGradGradGradGradGradGradGradGradGradGradGradGradGradGradGradGrad
 Berny optimization.
 Initialization pass.
                           ----------------------------
                           !    Initial Parameters    !
                           ! (Angstroms and Degrees)  !
 --------------------------                            --------------------------
 ! Name  Definition              Value          Derivative Info.                !
 --------------------------------------------------------------------------------
 ! R1    R(1,2)                  0.96           estimate D2E/DX2                !
 ! R2    R(1,3)                  0.96           estimate D2E/DX2                !
 ! A1    A(2,1,3)              109.5            estimate D2E/DX2                !
 --------------------------------------------------------------------------------
 Trust Radius=3.00D-01 FncErr=1.00D-07 GrdErr=1.00D-07
 Number of steps in this run=  20 maximum allowed number of steps= 100.
 GradGradGradGradGradGradGradGradGradGradGradGradGradGradGradGradGradGrad

                          Input orientation:                          
 ---------------------------------------------------------------------
 Center     Atomic     Atomic              Coordinates (Angstroms)
 Number     Number      Type              X           Y           Z
 ---------------------------------------------------------------------
    1          8             0        0.000000    0.000000    0.000000
    2          1             0        0.000000    0.000000    0.960000
    3          1             0        0.904936    0.000000   -0.320455
 ---------------------------------------------------------------------
                    Distance matrix (angstroms):
                    1          2          3
     1  O    0.000000
     2  H    0.960000   0.000000
     3  H    0.960000   1.567952   0.000000
 Stoichiometry    H2O
 Framework group  C2V[C2(O),SGV(H2)]
 Deg. of freedom     2
 Full point group                 C2V
 Largest Abelian subgroup         C2V     NOp   4
 Largest concise Abelian subgroup C2      NOp   2
                         Standard orientation:                         
 ---------------------------------------------------------------------
 Center     Atomic     Atomic              Coordinates (Angstroms)
 Number     Number      Type              X           Y           Z
 ---------------------------------------------------------------------
    1          8             0        0.000000    0.000000    0.110812
    2          1             0        0.000000    0.783976   -0.443248
    3          1             0        0.000000   -0.783976   -0.443248
 ---------------------------------------------------------------------
 Rotational constants (GHZ):    919.6759604    407.9403277    282.5913753
 Standard basis: Aug-CC-pVDZ (5D, 7F)
 There are    18 symmetry adapted basis functions of A1  symmetry.
 There are     4 symmetry adapted basis functions of A2  symmetry.
 There are     7 symmetry adapted basis functions of B1  symmetry.
 There are    12 symmetry adapted basis functions of B2  symmetry.
 Integral buffers will be    131072 words long.
 Raffenetti 1 integral format.
 Two-electron integral symmetry is turned on.
    41 basis functions,    65 primitive gaussians,    43 cartesian basis functions
     5 alpha electrons        5 beta electrons
       nuclear repulsion energy         9.1571159803 Hartrees.
 NAtoms=    3 NActive=    3 NUniq=    2 SFac= 1.69D+00 NAtFMM=   80 NAOKFM=F Big=F
 One-electron integrals computed using PRISM.
 NBasis=    41 RedAO= T  NBF=    18     4     7    12
 NBsUse=    41 1.00D-06 NBFU=    18     4     7    12
 Harris functional with IExCor=  205 diagonalized for initial guess.
 ExpMin= 2.97D-02 ExpMax= 1.17D+04 ExpMxC= 4.01D+02 IAcc=3 IRadAn=         5 AccDes= 0.00D+00
 HarFok:  IExCor= 205 AccDes= 0.00D+00 IRadAn=         5 IDoV=1
 ScaDFX=  1.000000  1.000000  1.000000  1.000000
 Initial guess orbital symmetries:
       Occupied  (A1) (A1) (B2) (A1) (B1)
       Virtual   (A1) (B2) (A1) (B1) (A1) (B2) (B2) (A1) (A2) (A1)
                 (B1) (B2) (A1) (B2) (B2) (A1) (B1) (A1) (A2) (A1)
                 (B1) (B2) (A1) (B2) (A2) (B1) (B2) (A1) (A1) (B2)
                 (A1) (B1) (A1) (A2) (A1) (B2)
 The electronic state of the initial guess is 1-A1.
 Requested convergence on RMS density matrix=1.00D-08 within 128 cycles.
 Requested convergence on MAX density matrix=1.00D-06.
 Requested convergence on             energy=1.00D-06.
 No special actions if energy rises.
 Keep R1 integrals in memory in canonical form, NReq=     1334710.
 SCF Done:  E(RHF) =  -76.0408384922     A.U. after   10 cycles
             Convg  =    0.5776D-08             -V/T =  2.0017
             S**2   =   0.0000
 ExpMin= 2.97D-02 ExpMax= 1.17D+04 ExpMxC= 4.01D+02 IAcc=3 IRadAn=         5 AccDes= 0.00D+00
 HarFok:  IExCor= 205 AccDes= 0.00D+00 IRadAn=         5 IDoV=1
 ScaDFX=  1.000000  1.000000  1.000000  1.000000
 Range of M.O.s used for correlation:     2    41
 NBasis=    41 NAE=     5 NBE=     5 NFC=     1 NFV=     0
 NROrb=     40 NOA=     4 NOB=     4 NVA=    36 NVB=    36
 Fully direct method using O(ONN) memory.
 JobTyp=1 Pass  1:  I=   2 to   5 NPSUse=  2 ParTrn=T ParDer=T DoDerP=T.
 Spin components of T(2) and E(2):
     alpha-alpha T2 =       0.7718894563D-02 E2=     -0.2790673284D-01
     alpha-beta  T2 =       0.4364853562D-01 E2=     -0.1635144682D+00
     beta-beta   T2 =       0.7718894563D-02 E2=     -0.2790673284D-01
 ANorm=    0.1029119199D+01
 E2 =    -0.2193279339D+00 EUMP2 =    -0.76260166426100D+02
 DoAtom=TTT
          Differentiating once with respect to electric field.
                with respect to dipole field.
          Differentiating once with respect to nuclear coordinates.
          Store integrals in memory, NReq=     1268517.
          There are   1 degrees of freedom in the 1st order CPHF.
     1 vectors were produced by pass  0.
 AX will form   1 AO Fock derivatives at one time.
     1 vectors were produced by pass  1.
     1 vectors were produced by pass  2.
     1 vectors were produced by pass  3.
     1 vectors were produced by pass  4.
     1 vectors were produced by pass  5.
     1 vectors were produced by pass  6.
     1 vectors were produced by pass  7.
     1 vectors were produced by pass  8.
     1 vectors were produced by pass  9.
 Inv2:  IOpt= 1 Iter= 1 AM= 3.09D-16 Conv= 1.00D-12.
 Inverted reduced A of dimension   10 with in-core refinement.
 End of Minotr Frequency-dependent properties file   721 does not exist.

 **********************************************************************

            Population analysis using the SCF density.

 **********************************************************************

 Orbital symmetries:
       Occupied  (A1) (A1) (B2) (A1) (B1)
       Virtual   (A1) (B2) (A1) (B1) (A1) (B2) (B2) (A1) (A2) (A1)
                 (B1) (B2) (A1) (B2) (B2) (A1) (B1) (A1) (A2) (A1)
                 (B2) (B1) (A1) (B2) (A2) (B1) (A1) (B2) (A1) (B2)
                 (A1) (B1) (A1) (A2) (A1) (B2)
 The electronic state is 1-A1.
 Alpha  occ. eigenvalues --  -20.57538  -1.35170  -0.72721  -0.57533  -0.50774
 Alpha virt. eigenvalues --    0.03578   0.05747   0.17464   0.19624   0.22153
 Alpha virt. eigenvalues --    0.22992   0.29317   0.32366   0.38281   0.41361
 Alpha virt. eigenvalues --    0.44101   0.53371   0.64926   0.65684   0.82403
 Alpha virt. eigenvalues --    0.91152   1.09559   1.10688   1.14886   1.33601
 Alpha virt. eigenvalues --    1.47267   1.48826   1.57853   1.98986   2.02611
 Alpha virt. eigenvalues --    2.08997   2.41328   2.47064   2.61762   2.72660
 Alpha virt. eigenvalues --    2.92070   3.66870   3.68273   3.70439   4.06283
 Alpha virt. eigenvalues --    4.28663
          Condensed to atoms (all electrons):
              1          2          3
     1  O    7.637290   0.339263   0.339263
     2  H    0.339263   0.543077  -0.040248
     3  H    0.339263  -0.040248   0.543077
 Mulliken atomic charges:
              1
     1  O   -0.315816
     2  H    0.157908
     3  H    0.157908
 Sum of Mulliken charges=   0.00000
 Atomic charges with hydrogens summed into heavy atoms:
              1
     1  O    0.000000
     2  H    0.000000
     3  H    0.000000
 Sum of Mulliken charges=   0.00000
 Electronic spatial extent (au):  <R**2>=    19.5838
 Charge=     0.0000 electrons
 Dipole moment (field-independent basis, Debye):
    X=     0.0000    Y=     0.0000    Z=    -1.9173  Tot=     1.9173
 Quadrupole moment (field-independent basis, Debye-Ang):
   XX=    -7.6061   YY=    -4.0535   ZZ=    -6.4178
   XY=     0.0000   XZ=     0.0000   YZ=     0.0000
 Traceless Quadrupole moment (field-independent basis, Debye-Ang):
   XX=    -1.5803   YY=     1.9723   ZZ=    -0.3920
   XY=     0.0000   XZ=     0.0000   YZ=     0.0000
 Octapole moment (field-independent basis, Debye-Ang**2):
  XXX=     0.0000  YYY=     0.0000  ZZZ=    -1.1052  XYY=     0.0000
  XXY=     0.0000  XXZ=    -0.2826  XZZ=     0.0000  YZZ=     0.0000
  YYZ=    -1.4060  XYZ=     0.0000
 Hexadecapole moment (field-independent basis, Debye-Ang**3):
 XXXX=    -6.8633 YYYY=    -5.8525 ZZZZ=    -7.3356 XXXY=     0.0000
 XXXZ=     0.0000 YYYX=     0.0000 YYYZ=     0.0000 ZZZX=     0.0000
 ZZZY=     0.0000 XXYY=    -2.4898 XXZZ=    -2.4082 YYZZ=    -1.9499
 XXYZ=     0.0000 YYXZ=     0.0000 ZZXY=     0.0000
 N-N= 9.157115980271D+00 E-N=-1.988304136456D+02  KE= 7.590922075574D+01
 Symmetry A1   KE= 6.793530046930D+01
 Symmetry A2   KE= 8.218892138200D-35
 Symmetry B1   KE= 4.439186231764D+00
 Symmetry B2   KE= 3.534734054682D+00
 ***** Axes restored to original set *****
 -------------------------------------------------------------------
 Center     Atomic                   Forces (Hartrees/Bohr)
 Number     Number              X              Y              Z
 -------------------------------------------------------------------
    1          8          -0.013416474    0.000000000   -0.009481827
    2          1           0.007830945    0.000000000    0.003152318
    3          1           0.005585529    0.000000000    0.006329509
 -------------------------------------------------------------------
 Cartesian Forces:  Max     0.013416474 RMS     0.006769445

 GradGradGradGradGradGradGradGradGradGradGradGradGradGradGradGradGradGrad
 Berny optimization.
 Internal  Forces:  Max     0.014206408 RMS     0.008596438
 Search for a local minimum.
 Step number   1 out of a maximum of  20
 All quantities printed in internal units (Hartrees-Bohrs-Radians)
 Second derivative matrix not updated -- first step.
 The second derivative matrix:
                          R1        R2        A1
           R1           0.55473
           R2           0.00000   0.55473
           A1           0.00000   0.00000   0.16000
     Eigenvalues ---    0.16000   0.55473   0.55473
 RFO step:  Lambda=-1.28706618D-03.
 Linear search not attempted -- first point.
 Iteration  1 RMS(Cart)=  0.04680211 RMS(Int)=  0.00144401
 Iteration  2 RMS(Cart)=  0.00134127 RMS(Int)=  0.00000019
 Iteration  3 RMS(Cart)=  0.00000017 RMS(Int)=  0.00000000
 Variable       Old X    -DE/DX   Delta X   Delta X   Delta X     New X
                                 (Linear)    (Quad)   (Total)
    R1        1.81414   0.00315   0.00000   0.00567   0.00567   1.81981
    R2        1.81414   0.00315   0.00000   0.00567   0.00567   1.81981
    A1        1.91114  -0.01421   0.00000  -0.08808  -0.08808   1.82305
         Item               Value     Threshold  Converged?
 Maximum Force            0.014206     0.000450     NO 
 RMS     Force            0.008596     0.000300     NO 
 Maximum Displacement     0.048179     0.001800     NO 
 RMS     Displacement     0.047472     0.001200     NO 
 Predicted change in Energy=-6.485669D-04
 GradGradGradGradGradGradGradGradGradGradGradGradGradGradGradGradGradGrad

                          Input orientation:                          
 ---------------------------------------------------------------------
 Center     Atomic     Atomic              Coordinates (Angstroms)
 Number     Number      Type              X           Y           Z
 ---------------------------------------------------------------------
    1          8             0       -0.019499    0.000000   -0.013781
    2          1             0        0.022898    0.000000    0.948286
    3          1             0        0.901537    0.000000   -0.294959
 ---------------------------------------------------------------------
                    Distance matrix (angstroms):
                    1          2          3
     1  O    0.000000
     2  H    0.963000   0.000000
     3  H    0.963000   1.522388   0.000000
 Stoichiometry    H2O
 Framework group  C2V[C2(O),SGV(H2)]
 Deg. of freedom     2
 Full point group                 C2V
 Largest Abelian subgroup         C2V     NOp   4
 Largest concise Abelian subgroup C2      NOp   2
                         Standard orientation:                         
 ---------------------------------------------------------------------
 Center     Atomic     Atomic              Coordinates (Angstroms)
 Number     Number      Type              X           Y           Z
 ---------------------------------------------------------------------
    1          8             0        0.000000    0.000000    0.117975
    2          1             0        0.000000    0.761194   -0.471900
    3          1             0        0.000000   -0.761194   -0.471900
 ---------------------------------------------------------------------
 Rotational constants (GHZ):    811.3843693    432.7245469    282.2147876
 Standard basis: Aug-CC-pVDZ (5D, 7F)
 There are    18 symmetry adapted basis functions of A1  symmetry.
 There are     4 symmetry adapted basis functions of A2  symmetry.
 There are     7 symmetry adapted basis functions of B1  symmetry.
 There are    12 symmetry adapted basis functions of B2  symmetry.
 Integral buffers will be    131072 words long.
 Raffenetti 1 integral format.
 Two-electron integral symmetry is turned on.
    41 basis functions,    65 primitive gaussians,    43 cartesian basis functions
     5 alpha electrons        5 beta electrons
       nuclear repulsion energy         9.1397403944 Hartrees.
 NAtoms=    3 NActive=    3 NUniq=    2 SFac= 1.69D+00 NAtFMM=   80 NAOKFM=F Big=F
 One-electron integrals computed using PRISM.
 NBasis=    41 RedAO= T  NBF=    18     4     7    12
 NBsUse=    41 1.00D-06 NBFU=    18     4     7    12
 Initial guess read from the read-write file:
 Initial guess orbital symmetries:
       Occupied  (A1) (A1) (B2) (A1) (B1)
       Virtual   (A1) (B2) (A1) (B1) (A1) (B2) (B2) (A1) (A2) (A1)
                 (B1) (B2) (A1) (B2) (B2) (A1) (B1) (A1) (A2) (A1)
                 (B2) (B1) (A1) (B2) (A2) (B1) (A1) (B2) (A1) (B2)
                 (A1) (B1) (A1) (A2) (A1) (B2)
 Harris functional with IExCor=  205 diagonalized for initial guess.
 ExpMin= 2.97D-02 ExpMax= 1.17D+04 ExpMxC= 4.01D+02 IAcc=3 IRadAn=         5 AccDes= 0.00D+00
 HarFok:  IExCor= 205 AccDes= 0.00D+00 IRadAn=         5 IDoV=1
 ScaDFX=  1.000000  1.000000  1.000000  1.000000
 Requested convergence on RMS density matrix=1.00D-08 within 128 cycles.
 Requested convergence on MAX density matrix=1.00D-06.
 Requested convergence on             energy=1.00D-06.
 No special actions if energy rises.
 Keep R1 integrals in memory in canonical form, NReq=     1334710.
 SCF Done:  E(RHF) =  -76.0410376525     A.U. after    9 cycles
             Convg  =    0.8051D-08             -V/T =  2.0018
             S**2   =   0.0000
 ExpMin= 2.97D-02 ExpMax= 1.17D+04 ExpMxC= 4.01D+02 IAcc=3 IRadAn=         5 AccDes= 0.00D+00
 HarFok:  IExCor= 205 AccDes= 0.00D+00 IRadAn=         5 IDoV=1
 ScaDFX=  1.000000  1.000000  1.000000  1.000000
 Range of M.O.s used for correlation:     2    41
 NBasis=    41 NAE=     5 NBE=     5 NFC=     1 NFV=     0
 NROrb=     40 NOA=     4 NOB=     4 NVA=    36 NVB=    36
 Fully direct method using O(ONN) memory.
 JobTyp=1 Pass  1:  I=   2 to   5 NPSUse=  2 ParTrn=T ParDer=T DoDerP=T.
 Spin components of T(2) and E(2):
     alpha-alpha T2 =       0.7762465496D-02 E2=     -0.2796697991D-01
     alpha-beta  T2 =       0.4392224188D-01 E2=     -0.1639172216D+00
     beta-beta   T2 =       0.7762465496D-02 E2=     -0.2796697991D-01
 ANorm=    0.1029294502D+01
 E2 =    -0.2198511814D+00 EUMP2 =    -0.76260888833971D+02
 DoAtom=TTT
          Differentiating once with respect to electric field.
                with respect to dipole field.
          Differentiating once with respect to nuclear coordinates.
          Store integrals in memory, NReq=     1268517.
          There are   1 degrees of freedom in the 1st order CPHF.
     1 vectors were produced by pass  0.
 AX will form   1 AO Fock derivatives at one time.
     1 vectors were produced by pass  1.
     1 vectors were produced by pass  2.
     1 vectors were produced by pass  3.
     1 vectors were produced by pass  4.
     1 vectors were produced by pass  5.
     1 vectors were produced by pass  6.
     1 vectors were produced by pass  7.
     1 vectors were produced by pass  8.
     1 vectors were produced by pass  9.
 Inv2:  IOpt= 1 Iter= 1 AM= 4.82D-16 Conv= 1.00D-12.
 Inverted reduced A of dimension   10 with in-core refinement.
 End of Minotr Frequency-dependent properties file   721 does not exist.
 ***** Axes restored to original set *****
 -------------------------------------------------------------------
 Center     Atomic                   Forces (Hartrees/Bohr)
 Number     Number              X              Y              Z
 -------------------------------------------------------------------
    1          8          -0.003533562    0.000000000   -0.002497275
    2          1           0.000807476    0.000000000    0.002606022
    3          1           0.002726086    0.000000000   -0.000108747
 -------------------------------------------------------------------
 Cartesian Forces:  Max     0.003533562 RMS     0.001932448

 GradGradGradGradGradGradGradGradGradGradGradGradGradGradGradGradGradGrad
 Berny optimization.
 Internal  Forces:  Max     0.002639046 RMS     0.002274114
 Search for a local minimum.
 Step number   2 out of a maximum of  20
 All quantities printed in internal units (Hartrees-Bohrs-Radians)
 Update second derivatives using D2CorX and points  1  2
 Trust test= 1.11D+00 RLast= 8.84D-02 DXMaxT set to 3.00D-01
 The second derivative matrix:
                          R1        R2        A1
           R1           0.54722
           R2          -0.00752   0.54722
           A1           0.02891   0.02891   0.15071
     Eigenvalues ---    0.14646   0.54395   0.55473
 RFO step:  Lambda=-2.45756537D-05.
 Quartic linear search produced a step of  0.11703.
 Iteration  1 RMS(Cart)=  0.00503598 RMS(Int)=  0.00002499
 Iteration  2 RMS(Cart)=  0.00002817 RMS(Int)=  0.00000000
 Iteration  3 RMS(Cart)=  0.00000000 RMS(Int)=  0.00000000
 Variable       Old X    -DE/DX   Delta X   Delta X   Delta X     New X
                                 (Linear)    (Quad)   (Total)
    R1        1.81981   0.00264   0.00066   0.00475   0.00541   1.82522
    R2        1.81981   0.00264   0.00066   0.00475   0.00541   1.82522
    A1        1.82305  -0.00126  -0.01031   0.00038  -0.00993   1.81312
         Item               Value     Threshold  Converged?
 Maximum Force            0.002639     0.000450     NO 
 RMS     Force            0.002274     0.000300     NO 
 Maximum Displacement     0.005698     0.001800     NO 
 RMS     Displacement     0.005045     0.001200     NO 
 Predicted change in Energy=-2.093853D-05
 GradGradGradGradGradGradGradGradGradGradGradGradGradGradGradGradGradGrad

                          Input orientation:                          
 ---------------------------------------------------------------------
 Center     Atomic     Atomic              Coordinates (Angstroms)
 Number     Number      Type              X           Y           Z
 ---------------------------------------------------------------------
    1          8             0       -0.022515    0.000000   -0.015912
    2          1             0        0.024800    0.000000    0.948793
    3          1             0        0.902650    0.000000   -0.293336
 ---------------------------------------------------------------------
                    Distance matrix (angstroms):
                    1          2          3
     1  O    0.000000
     2  H    0.965864   0.000000
     3  H    0.965864   1.521021   0.000000
 Stoichiometry    H2O
 Framework group  C2V[C2(O),SGV(H2)]
 Deg. of freedom     2
 Full point group                 C2V
 Largest Abelian subgroup         C2V     NOp   4
 Largest concise Abelian subgroup C2      NOp   2
                         Standard orientation:                         
 ---------------------------------------------------------------------
 Center     Atomic     Atomic              Coordinates (Angstroms)
 Number     Number      Type              X           Y           Z
 ---------------------------------------------------------------------
    1          8             0        0.000000    0.000000    0.119083
    2          1             0        0.000000    0.760510   -0.476331
    3          1             0        0.000000   -0.760510   -0.476331
 ---------------------------------------------------------------------
 Rotational constants (GHZ):    796.3599073    433.5025588    280.7013524
 Standard basis: Aug-CC-pVDZ (5D, 7F)
 There are    18 symmetry adapted basis functions of A1  symmetry.
 There are     4 symmetry adapted basis functions of A2  symmetry.
 There are     7 symmetry adapted basis functions of B1  symmetry.
 There are    12 symmetry adapted basis functions of B2  symmetry.
 Integral buffers will be    131072 words long.
 Raffenetti 1 integral format.
 Two-electron integral symmetry is turned on.
    41 basis functions,    65 primitive gaussians,    43 cartesian basis functions
     5 alpha electrons        5 beta electrons
       nuclear repulsion energy         9.1139798351 Hartrees.
 NAtoms=    3 NActive=    3 NUniq=    2 SFac= 1.69D+00 NAtFMM=   80 NAOKFM=F Big=F
 One-electron integrals computed using PRISM.
 NBasis=    41 RedAO= T  NBF=    18     4     7    12
 NBsUse=    41 1.00D-06 NBFU=    18     4     7    12
 Initial guess read from the read-write file:
 Initial guess orbital symmetries:
       Occupied  (A1) (A1) (B2) (A1) (B1)
       Virtual   (A1) (B2) (A1) (B1) (A1) (B2) (B2) (A1) (A2) (A1)
                 (B1) (B2) (A1) (B2) (B2) (A1) (B1) (A1) (A2) (A1)
                 (B2) (B1) (A1) (B2) (A2) (B1) (A1) (B2) (A1) (B2)
                 (A1) (B1) (A1) (A2) (A1) (B2)
 Requested convergence on RMS density matrix=1.00D-08 within 128 cycles.
 Requested convergence on MAX density matrix=1.00D-06.
 Requested convergence on             energy=1.00D-06.
 No special actions if energy rises.
 Keep R1 integrals in memory in canonical form, NReq=     1334710.
 SCF Done:  E(RHF) =  -76.0407678406     A.U. after    8 cycles
             Convg  =    0.6479D-08             -V/T =  2.0019
             S**2   =   0.0000
 ExpMin= 2.97D-02 ExpMax= 1.17D+04 ExpMxC= 4.01D+02 IAcc=3 IRadAn=         5 AccDes= 0.00D+00
 HarFok:  IExCor= 205 AccDes= 0.00D+00 IRadAn=         5 IDoV=1
 ScaDFX=  1.000000  1.000000  1.000000  1.000000
 Range of M.O.s used for correlation:     2    41
 NBasis=    41 NAE=     5 NBE=     5 NFC=     1 NFV=     0
 NROrb=     40 NOA=     4 NOB=     4 NVA=    36 NVB=    36
 Fully direct method using O(ONN) memory.
 JobTyp=1 Pass  1:  I=   2 to   5 NPSUse=  2 ParTrn=T ParDer=T DoDerP=T.
 Spin components of T(2) and E(2):
     alpha-alpha T2 =       0.7789126319D-02 E2=     -0.2800070552D-01
     alpha-beta  T2 =       0.4409361167D-01 E2=     -0.1641405043D+00
     beta-beta   T2 =       0.7789126319D-02 E2=     -0.2800070552D-01
 ANorm=    0.1029403645D+01
 E2 =    -0.2201419154D+00 EUMP2 =    -0.76260909755957D+02
 DoAtom=TTT
          Differentiating once with respect to electric field.
                with respect to dipole field.
          Differentiating once with respect to nuclear coordinates.
          Store integrals in memory, NReq=     1268517.
          There are   1 degrees of freedom in the 1st order CPHF.
     1 vectors were produced by pass  0.
 AX will form   1 AO Fock derivatives at one time.
     1 vectors were produced by pass  1.
     1 vectors were produced by pass  2.
     1 vectors were produced by pass  3.
     1 vectors were produced by pass  4.
     1 vectors were produced by pass  5.
     1 vectors were produced by pass  6.
     1 vectors were produced by pass  7.
     1 vectors were produced by pass  8.
     1 vectors were produced by pass  9.
 Inv2:  IOpt= 1 Iter= 1 AM= 3.10D-16 Conv= 1.00D-12.
 Inverted reduced A of dimension   10 with in-core refinement.
 End of Minotr Frequency-dependent properties file   721 does not exist.
 ***** Axes restored to original set *****
 -------------------------------------------------------------------
 Center     Atomic                   Forces (Hartrees/Bohr)
 Number     Number              X              Y              Z
 -------------------------------------------------------------------
    1          8          -0.000074991    0.000000000   -0.000052998
    2          1           0.000015471    0.000000000    0.000057663
    3          1           0.000059520    0.000000000   -0.000004665
 -------------------------------------------------------------------
 Cartesian Forces:  Max     0.000074991 RMS     0.000041581

 GradGradGradGradGradGradGradGradGradGradGradGradGradGradGradGradGradGrad
 Berny optimization.
 Internal  Forces:  Max     0.000058351 RMS     0.000049467
 Search for a local minimum.
 Step number   3 out of a maximum of  20
 All quantities printed in internal units (Hartrees-Bohrs-Radians)
 Update second derivatives using D2CorX and points  1  2  3
 Trust test= 9.99D-01 RLast= 1.25D-02 DXMaxT set to 3.00D-01
 The second derivative matrix:
                          R1        R2        A1
           R1           0.54098
           R2          -0.01375   0.54098
           A1           0.02749   0.02749   0.15443
     Eigenvalues ---    0.15042   0.53124   0.55473
 RFO step:  Lambda= 0.00000000D+00.
 Quartic linear search produced a step of  0.02155.
 Iteration  1 RMS(Cart)=  0.00010190 RMS(Int)=  0.00000001
 Iteration  2 RMS(Cart)=  0.00000001 RMS(Int)=  0.00000000
 Variable       Old X    -DE/DX   Delta X   Delta X   Delta X     New X
                                 (Linear)    (Quad)   (Total)
    R1        1.82522   0.00006   0.00012   0.00000   0.00012   1.82534
    R2        1.82522   0.00006   0.00012   0.00000   0.00012   1.82534
    A1        1.81312  -0.00002  -0.00021   0.00002  -0.00019   1.81293
         Item               Value     Threshold  Converged?
 Maximum Force            0.000058     0.000450     YES
 RMS     Force            0.000049     0.000300     YES
 Maximum Displacement     0.000117     0.001800     YES
 RMS     Displacement     0.000102     0.001200     YES
 Predicted change in Energy=-9.257369D-09
 Optimization completed.
    -- Stationary point found.
                           ----------------------------
                           !   Optimized Parameters   !
                           ! (Angstroms and Degrees)  !
 --------------------------                            --------------------------
 ! Name  Definition              Value          Derivative Info.                !
 --------------------------------------------------------------------------------
 ! R1    R(1,2)                  0.9659         -DE/DX =    0.0001              !
 ! R2    R(1,3)                  0.9659         -DE/DX =    0.0001              !
 ! A1    A(2,1,3)              103.8842         -DE/DX =    0.0                 !
 --------------------------------------------------------------------------------
 GradGradGradGradGradGradGradGradGradGradGradGradGradGradGradGradGradGrad

                          Input orientation:                          
 ---------------------------------------------------------------------
 Center     Atomic     Atomic              Coordinates (Angstroms)
 Number     Number      Type              X           Y           Z
 ---------------------------------------------------------------------
    1          8             0       -0.022515    0.000000   -0.015912
    2          1             0        0.024800    0.000000    0.948793
    3          1             0        0.902650    0.000000   -0.293336
 ---------------------------------------------------------------------
                    Distance matrix (angstroms):
                    1          2          3
     1  O    0.000000
     2  H    0.965864   0.000000
     3  H    0.965864   1.521021   0.000000
 Stoichiometry    H2O
 Framework group  C2V[C2(O),SGV(H2)]
 Deg. of freedom     2
 Full point group                 C2V
 Largest Abelian subgroup         C2V     NOp   4
 Largest concise Abelian subgroup C2      NOp   2
                         Standard orientation:                         
 ---------------------------------------------------------------------
 Center     Atomic     Atomic              Coordinates (Angstroms)
 Number     Number      Type              X           Y           Z
 ---------------------------------------------------------------------
    1          8             0        0.000000    0.000000    0.119083
    2          1             0        0.000000    0.760510   -0.476331
    3          1             0        0.000000   -0.760510   -0.476331
 ---------------------------------------------------------------------
 Rotational constants (GHZ):    796.3599073    433.5025588    280.7013524

 **********************************************************************

            Population analysis using the SCF density.

 **********************************************************************

 Orbital symmetries:
       Occupied  (A1) (A1) (B2) (A1) (B1)
       Virtual   (A1) (B2) (A1) (B1) (A1) (B2) (B2) (A1) (A2) (A1)
                 (B1) (B2) (A1) (B2) (B2) (A1) (B1) (A1) (A2) (A1)
                 (B2) (B1) (A1) (B2) (A2) (B1) (A1) (B2) (A1) (B2)
                 (A1) (B1) (A1) (A2) (A1) (B2)
 The electronic state is 1-A1.
 Alpha  occ. eigenvalues --  -20.57899  -1.35266  -0.71337  -0.58523  -0.50892
 Alpha virt. eigenvalues --    0.03524   0.05794   0.17410   0.19717   0.22210
 Alpha virt. eigenvalues --    0.23190   0.28798   0.33126   0.38552   0.40161
 Alpha virt. eigenvalues --    0.43159   0.53856   0.64622   0.65791   0.80624
 Alpha virt. eigenvalues --    0.92912   1.10251   1.11661   1.14807   1.30161
 Alpha virt. eigenvalues --    1.46354   1.47979   1.58169   1.99855   2.00490
 Alpha virt. eigenvalues --    2.10548   2.35737   2.46695   2.61042   2.71042
 Alpha virt. eigenvalues --    2.96990   3.67298   3.68915   3.70085   4.01246
 Alpha virt. eigenvalues --    4.29201
          Condensed to atoms (all electrons):
              1          2          3
     1  O    7.648307   0.333618   0.333618
     2  H    0.333618   0.541042  -0.032432
     3  H    0.333618  -0.032432   0.541042
 Mulliken atomic charges:
              1
     1  O   -0.315543
     2  H    0.157772
     3  H    0.157772
 Sum of Mulliken charges=   0.00000
 Atomic charges with hydrogens summed into heavy atoms:
              1
     1  O    0.000000
     2  H    0.000000
     3  H    0.000000
 Sum of Mulliken charges=   0.00000
 Electronic spatial extent (au):  <R**2>=    19.6465
 Charge=     0.0000 electrons
 Dipole moment (field-independent basis, Debye):
    X=     0.0000    Y=     0.0000    Z=    -2.0158  Tot=     2.0158
 Quadrupole moment (field-independent basis, Debye-Ang):
   XX=    -7.6086   YY=    -4.2865   ZZ=    -6.2495
   XY=     0.0000   XZ=     0.0000   YZ=     0.0000
 Traceless Quadrupole moment (field-independent basis, Debye-Ang):
   XX=    -1.5604   YY=     1.7617   ZZ=    -0.2013
   XY=     0.0000   XZ=     0.0000   YZ=     0.0000
 Octapole moment (field-independent basis, Debye-Ang**2):
  XXX=     0.0000  YYY=     0.0000  ZZZ=    -1.2036  XYY=     0.0000
  XXY=     0.0000  XXZ=    -0.2913  XZZ=     0.0000  YZZ=     0.0000
  YYZ=    -1.4133  XYZ=     0.0000
 Hexadecapole moment (field-independent basis, Debye-Ang**3):
 XXXX=    -6.8395 YYYY=    -6.0867 ZZZZ=    -7.3847 XXXY=     0.0000
 XXXZ=     0.0000 YYYX=     0.0000 YYYZ=     0.0000 ZZZX=     0.0000
 ZZZY=     0.0000 XXYY=    -2.4758 XXZZ=    -2.4249 YYZZ=    -1.9032
 XXYZ=     0.0000 YYXZ=     0.0000 ZZXY=     0.0000
 N-N= 9.113979835065D+00 E-N=-1.987255504412D+02  KE= 7.589437982578D+01
 Symmetry A1   KE= 6.790709790303D+01
 Symmetry A2   KE= 2.121323244279D-34
 Symmetry B1   KE= 4.446204399033D+00
 Symmetry B2   KE= 3.541077523724D+00
 Final structure in terms of initial Z-matrix:
 O
 H,1,B1
 H,1,B2,2,A1
      Variables:
 B1=0.96586438
 B2=0.96586438
 A1=103.8842495
 1\1\GINC-POLARIS-C01\FOpt\RMP2-FC\Aug-CC-pVDZ\H2O1\G060005\13-Apr-2005
 \0\\# opt freq mp2/aug-cc-pvDZ geom=connectivity\\Title Card Required\
 \0,1\O,-0.0225145959,0.,-0.0159117432\H,0.0248002553,0.,0.9487930301\H
 ,0.9026501717,0.,-0.2933358728\\Version=AM64L-G03RevD.01\State=1-A1\HF
 =-76.0407678\MP2=-76.2609098\RMSD=6.479e-09\RMSF=4.158e-05\Thermal=0.\
 Dipole=0.6037962,0.,0.426721\PG=C02V [C2(O1),SGV(H2)]\\@


 A politician is a person who can make waves and then
 make you think he's the only one who can save the ship.
 -- Ivern Ball
 Job cpu time:  0 days  0 hours  0 minutes 18.0 seconds.
 File lengths (MBytes):  RWF=     18 Int=      0 D2E=      0 Chk=     10 Scr=      1
 Normal termination of Gaussian 03 at Wed Apr 13 19:05:38 2005.
 Link1:  Proceeding to internal job step number  2.
 ----------------------------------------------------------------------
 #N Geom=AllCheck Guess=Read SCRF=Check GenChk RMP2(FC)/Aug-CC-pVDZ Fre
 q
 ----------------------------------------------------------------------
 1/10=4,29=7,30=1,38=1,40=1,46=1/1,3;
 2/40=1/2;
 3/5=16,7=10,11=1,16=1,25=1,30=1,70=2,71=2/1,2,3;
 4/5=1,7=1/1;
 5/5=2,38=6/2;
 8/6=3,8=1,10=1,19=11,30=-1/1;
 9/15=3,16=-3/6;
 11/6=1,8=1,15=11,17=12,24=-1,27=1,28=-2,29=300,32=6,42=3/1,2,10;
 10/6=2,21=1/2;
 8/6=4,8=1,10=1,19=11,30=-1/11,4;
 10/5=1,20=4/2;
 11/12=2,14=11,16=1,17=2,28=-2,42=3/2,10,12;
 6/7=2,8=2,9=2,10=2/1;
 7/8=1,10=1,12=2,25=1,44=2/1,2,3,16;
 1/10=4,30=1,46=1/3;
 99//99;
 -------------------
 Title Card Required
 -------------------
 Redundant internal coordinates taken from checkpoint file:
 W1.chk
 Charge =  0 Multiplicity = 1
 O,0,-0.0225145959,0.,-0.0159117432
 H,0,0.0248002553,0.,0.9487930301
 H,0,0.9026501717,0.,-0.2933358728
 Recover connectivity data from disk.

 GradGradGradGradGradGradGradGradGradGradGradGradGradGradGradGradGradGrad
 Berny optimization.
 Initialization pass.
                           ----------------------------
                           !    Initial Parameters    !
                           ! (Angstroms and Degrees)  !
 --------------------------                            --------------------------
 ! Name  Definition              Value          Derivative Info.                !
 --------------------------------------------------------------------------------
 ! R1    R(1,2)                  0.9659         calculate D2E/DX2 analytically  !
 ! R2    R(1,3)                  0.9659         calculate D2E/DX2 analytically  !
 ! A1    A(2,1,3)              103.8842         calculate D2E/DX2 analytically  !
 --------------------------------------------------------------------------------
 Trust Radius=3.00D-01 FncErr=1.00D-07 GrdErr=1.00D-07
 Number of steps in this run=   2 maximum allowed number of steps=   2.
 GradGradGradGradGradGradGradGradGradGradGradGradGradGradGradGradGradGrad

                          Input orientation:                          
 ---------------------------------------------------------------------
 Center     Atomic     Atomic              Coordinates (Angstroms)
 Number     Number      Type              X           Y           Z
 ---------------------------------------------------------------------
    1          8             0       -0.022515    0.000000   -0.015912
    2          1             0        0.024800    0.000000    0.948793
    3          1             0        0.902650    0.000000   -0.293336
 ---------------------------------------------------------------------
                    Distance matrix (angstroms):
                    1          2          3
     1  O    0.000000
     2  H    0.965864   0.000000
     3  H    0.965864   1.521021   0.000000
 Stoichiometry    H2O
 Framework group  C2V[C2(O),SGV(H2)]
 Deg. of freedom     2
 Full point group                 C2V
 Largest Abelian subgroup         C2V     NOp   4
 Largest concise Abelian subgroup C2      NOp   2
                         Standard orientation:                         
 ---------------------------------------------------------------------
 Center     Atomic     Atomic              Coordinates (Angstroms)
 Number     Number      Type              X           Y           Z
 ---------------------------------------------------------------------
    1          8             0        0.000000    0.000000    0.119083
    2          1             0        0.000000    0.760510   -0.476331
    3          1             0        0.000000   -0.760510   -0.476331
 ---------------------------------------------------------------------
 Rotational constants (GHZ):    796.3599073    433.5025588    280.7013524
 Standard basis: Aug-CC-pVDZ (5D, 7F)
 There are    18 symmetry adapted basis functions of A1  symmetry.
 There are     4 symmetry adapted basis functions of A2  symmetry.
 There are     7 symmetry adapted basis functions of B1  symmetry.
 There are    12 symmetry adapted basis functions of B2  symmetry.
 Integral buffers will be    131072 words long.
 Raffenetti 1 integral format.
 Two-electron integral symmetry is turned on.
    41 basis functions,    65 primitive gaussians,    43 cartesian basis functions
     5 alpha electrons        5 beta electrons
       nuclear repulsion energy         9.1139798351 Hartrees.
 NAtoms=    3 NActive=    3 NUniq=    2 SFac= 1.69D+00 NAtFMM=   80 NAOKFM=F Big=F
 One-electron integrals computed using PRISM.
 NBasis=    41 RedAO= T  NBF=    18     4     7    12
 NBsUse=    41 1.00D-06 NBFU=    18     4     7    12
 Initial guess read from the checkpoint file:
 W1.chk
 Initial guess orbital symmetries:
       Occupied  (A1) (A1) (B2) (A1) (B1)
       Virtual   (A1) (B2) (A1) (B1) (A1) (B2) (B2) (A1) (A2) (A1)
                 (B1) (B2) (A1) (B2) (B2) (A1) (B1) (A1) (A2) (A1)
                 (B2) (B1) (A1) (B2) (A2) (B1) (A1) (B2) (A1) (B2)
                 (A1) (B1) (A1) (A2) (A1) (B2)
 Requested convergence on RMS density matrix=1.00D-08 within 128 cycles.
 Requested convergence on MAX density matrix=1.00D-06.
 Requested convergence on             energy=1.00D-06.
 No special actions if energy rises.
 Keep R1 integrals in memory in canonical form, NReq=     1334710.
 SCF Done:  E(RHF) =  -76.0407678406     A.U. after    1 cycles
             Convg  =    0.5748D-09             -V/T =  2.0019
             S**2   =   0.0000
 ExpMin= 2.97D-02 ExpMax= 1.17D+04 ExpMxC= 4.01D+02 IAcc=3 IRadAn=         5 AccDes= 0.00D+00
 HarFok:  IExCor= 205 AccDes= 0.00D+00 IRadAn=         5 IDoV=1
 ScaDFX=  1.000000  1.000000  1.000000  1.000000
 Range of M.O.s used for correlation:     2    41
 NBasis=    41 NAE=     5 NBE=     5 NFC=     1 NFV=     0
 NROrb=     40 NOA=     4 NOB=     4 NVA=    36 NVB=    36
 Disk-based method using ON**2 memory for  4 occupieds at a time.
 Permanent disk used for amplitudes=       38700 words.
 Estimated scratch disk usage=      995293 words.
 Actual    scratch disk usage=      995293 words.
 GetIJB would need an additional     1348498 words of memory to use all   2 processors.
 JobTyp=1 Pass  1:  I=   2 to   5 NPSUse=  1 ParTrn=F ParDer=F DoDerP=T.
 (rs|ai) integrals will be sorted in core.
 Spin components of T(2) and E(2):
     alpha-alpha T2 =       0.7789126346D-02 E2=     -0.2800070559D-01
     alpha-beta  T2 =       0.4409361175D-01 E2=     -0.1641405044D+00
     beta-beta   T2 =       0.7789126346D-02 E2=     -0.2800070559D-01
 ANorm=    0.1029403645D+01
 E2 =    -0.2201419156D+00 EUMP2 =    -0.76260909756195D+02
 G2DrvN: will do    4 centers at a time, making    1 passes doing MaxLOS=2.
 FoFDir/FoFCou used for L=0 through L=2.
 DoAtom=TTT
          Differentiating once with respect to electric field.
                with respect to dipole field.
          Differentiating once with respect to nuclear coordinates.
          Store integrals in memory, NReq=     1268517.
          There are  12 degrees of freedom in the 1st order CPHF.
     9 vectors were produced by pass  0.
 AX will form   9 AO Fock derivatives at one time.
     9 vectors were produced by pass  1.
     9 vectors were produced by pass  2.
     9 vectors were produced by pass  3.
     9 vectors were produced by pass  4.
     9 vectors were produced by pass  5.
     7 vectors were produced by pass  6.
     2 vectors were produced by pass  7.
 Inv2:  IOpt= 1 Iter= 1 AM= 5.09D-16 Conv= 1.00D-12.
 Inverted reduced A of dimension   63 with in-core refinement.
 End of Minotr Frequency-dependent properties file   721 does not exist.
 MDV=     6291456.
 Form MO integral derivatives with frozen-active canonical formalism.
 Discarding MO integrals.
             Reordered first order wavefunction length =        64800
 In DefCFB: NBatch=  1, ICI=  5, ICA= 36, LFMax= 12
             Large arrays: LIAPS=     1269360, LIARS=     1354500 words.
 Spin components of T(2) and E(2):
     alpha-alpha T2 =       0.7789126346D-02 E2=     -0.2800070559D-01
     alpha-beta  T2 =       0.4409361175D-01 E2=     -0.1641405044D+00
     beta-beta   T2 =       0.7789126346D-02 E2=     -0.2800070559D-01
 ANorm=    0.1455796596D+01
 E2=       -0.2201419156D+00 EUMP2=       -0.76260909756195D+02
 DoAtom=TTT
          Differentiating once with respect to electric field.
                with respect to dipole field.
          Differentiating once with respect to nuclear coordinates.
          There are   1 degrees of freedom in the 1st order CPHF.
 Petite list used in FoFDir.
 MinBra= 0 MaxBra= 2 Meth= 1.
 IRaf=       0 NMat=   1 IRICut=       1 DoRegI=T DoRafI=F ISym2E= 1 JSym2E=1.
     1 vectors were produced by pass  0.
     1 vectors were produced by pass  1.
     1 vectors were produced by pass  2.
     1 vectors were produced by pass  3.
     1 vectors were produced by pass  4.
     1 vectors were produced by pass  5.
     1 vectors were produced by pass  6.
     1 vectors were produced by pass  7.
     1 vectors were produced by pass  8.
     1 vectors were produced by pass  9.
 Inv2:  IOpt= 1 Iter= 1 AM= 3.01D-16 Conv= 1.00D-12.
 Inverted reduced A of dimension   10 with in-core refinement.
 End of Minotr Frequency-dependent properties file   721 does not exist.
 Symmetrizing basis deriv contribution to polar:
 IMax=3 JMax=2 DiffMx= 0.00D+00
 G2DrvN: will do    4 centers at a time, making    1 passes doing MaxLOS=2.
 FoFDir/FoFCou used for L=0 through L=2.
 R2 and R3 integrals will be kept in memory, NReq=     1715862.
 DD1Dir will call FoFMem   1 times, MxPair=        30
 NAB=    15 NAA=     0 NBB=     0.
 Discarding MO integrals.

 **********************************************************************

            Population analysis using the SCF density.

 **********************************************************************

 Orbital symmetries:
       Occupied  (A1) (A1) (B2) (A1) (B1)
       Virtual   (A1) (B2) (A1) (B1) (A1) (B2) (B2) (A1) (A2) (A1)
                 (B1) (B2) (A1) (B2) (B2) (A1) (B1) (A1) (A2) (A1)
                 (B2) (B1) (A1) (B2) (A2) (B1) (A1) (B2) (A1) (B2)
                 (A1) (B1) (A1) (A2) (A1) (B2)
 The electronic state is 1-A1.
 Alpha  occ. eigenvalues --  -20.57899  -1.35266  -0.71337  -0.58523  -0.50892
 Alpha virt. eigenvalues --    0.03524   0.05794   0.17410   0.19717   0.22210
 Alpha virt. eigenvalues --    0.23190   0.28798   0.33126   0.38552   0.40161
 Alpha virt. eigenvalues --    0.43159   0.53856   0.64622   0.65791   0.80624
 Alpha virt. eigenvalues --    0.92912   1.10251   1.11661   1.14807   1.30161
 Alpha virt. eigenvalues --    1.46354   1.47979   1.58169   1.99855   2.00490
 Alpha virt. eigenvalues --    2.10548   2.35737   2.46695   2.61042   2.71042
 Alpha virt. eigenvalues --    2.96990   3.67298   3.68915   3.70085   4.01246
 Alpha virt. eigenvalues --    4.29201
          Condensed to atoms (all electrons):
              1          2          3
     1  O    7.648307   0.333618   0.333618
     2  H    0.333618   0.541042  -0.032432
     3  H    0.333618  -0.032432   0.541042
 Mulliken atomic charges:
              1
     1  O   -0.315543
     2  H    0.157772
     3  H    0.157772
 Sum of Mulliken charges=   0.00000
 Atomic charges with hydrogens summed into heavy atoms:
              1
     1  O    0.000000
     2  H    0.000000
     3  H    0.000000
 Sum of Mulliken charges=   0.00000
 APT atomic charges:
              1
     1  O   -0.502489
     2  H    0.251244
     3  H    0.251244
 Sum of APT charges=   0.00000
 APT Atomic charges with hydrogens summed into heavy atoms:
              1
     1  O    0.000000
     2  H    0.000000
     3  H    0.000000
 Sum of APT charges=   0.00000
 Electronic spatial extent (au):  <R**2>=    19.6465
 Charge=     0.0000 electrons
 Dipole moment (field-independent basis, Debye):
    X=     0.0000    Y=     0.0000    Z=    -2.0158  Tot=     2.0158
 Quadrupole moment (field-independent basis, Debye-Ang):
   XX=    -7.6086   YY=    -4.2865   ZZ=    -6.2495
   XY=     0.0000   XZ=     0.0000   YZ=     0.0000
 Traceless Quadrupole moment (field-independent basis, Debye-Ang):
   XX=    -1.5604   YY=     1.7617   ZZ=    -0.2013
   XY=     0.0000   XZ=     0.0000   YZ=     0.0000
 Octapole moment (field-independent basis, Debye-Ang**2):
  XXX=     0.0000  YYY=     0.0000  ZZZ=    -1.2036  XYY=     0.0000
  XXY=     0.0000  XXZ=    -0.2913  XZZ=     0.0000  YZZ=     0.0000
  YYZ=    -1.4133  XYZ=     0.0000
 Hexadecapole moment (field-independent basis, Debye-Ang**3):
 XXXX=    -6.8395 YYYY=    -6.0867 ZZZZ=    -7.3847 XXXY=     0.0000
 XXXZ=     0.0000 YYYX=     0.0000 YYYZ=     0.0000 ZZZX=     0.0000
 ZZZY=     0.0000 XXYY=    -2.4758 XXZZ=    -2.4249 YYZZ=    -1.9032
 XXYZ=     0.0000 YYXZ=     0.0000 ZZXY=     0.0000
 N-N= 9.113979835065D+00 E-N=-1.987255504086D+02  KE= 7.589437980549D+01
 Symmetry A1   KE= 6.790709787718D+01
 Symmetry A2   KE= 7.097270424719D-35
 Symmetry B1   KE= 4.446204396804D+00
 Symmetry B2   KE= 3.541077531510D+00
  Exact polarizability:   8.775   0.000   9.956   0.000   0.000   9.172
 Approx polarizability:   5.938   0.000   7.867   0.000   0.000   7.097
 Full mass-weighted force constant matrix:
 Low frequencies ---  -34.7095  -29.5894  -26.3831   -0.0006    0.0006    0.0020
 Low frequencies --- 1622.0622 3804.1184 3938.4185
 Diagonal vibrational polarizability:
        0.0000000       0.1163542       0.6978903
 Harmonic frequencies (cm**-1), IR intensities (KM/Mole), Raman scattering
 activities (A**4/AMU), depolarization ratios for plane and unpolarized
 incident light, reduced masses (AMU), force constants (mDyne/A),
 and normal coordinates:
                     1                      2                      3
                    A1                     A1                     B2
 Frequencies --  1622.0622              3804.1184              3938.4185
 Red. masses --     1.0824                 1.0455                 1.0812
 Frc consts  --     1.6778                 8.9139                 9.8814
 IR Inten    --    67.4786                 4.1448                67.0645
 Atom AN      X      Y      Z        X      Y      Z        X      Y      Z
   1   8     0.00   0.00   0.07     0.00   0.00   0.05     0.00   0.07   0.00
   2   1     0.00  -0.43  -0.56     0.00   0.58  -0.40     0.00  -0.56   0.43
   3   1     0.00   0.43  -0.56     0.00  -0.58  -0.40     0.00  -0.56  -0.43

 -------------------
 - Thermochemistry -
 -------------------
 Temperature   298.150 Kelvin.  Pressure   1.00000 Atm.
 Atom  1 has atomic number  8 and mass  15.99491
 Atom  2 has atomic number  1 and mass   1.00783
 Atom  3 has atomic number  1 and mass   1.00783
 Molecular mass:    18.01056 amu.
 Principal axes and moments of inertia in atomic units:
                           1         2         3
     EIGENVALUES --     2.26624   4.16316   6.42940
           X            0.00000   0.00000   1.00000
           Y            1.00000   0.00000   0.00000
           Z            0.00000   1.00000   0.00000
 This molecule is an asymmetric top.
 Rotational symmetry number  2.
 Rotational temperatures (Kelvin)     38.21920    20.80482    13.47152
 Rotational constants (GHZ):         796.35991   433.50256   280.70135
 Zero-point vibrational energy      56012.7 (Joules/Mol)
                                   13.38737 (Kcal/Mol)
 Vibrational temperatures:   2333.78  5473.27  5666.50
          (Kelvin)
 
 Zero-point correction=                           0.021334 (Hartree/Particle)
 Thermal correction to Energy=                    0.024170
 Thermal correction to Enthalpy=                  0.025114
 Thermal correction to Gibbs Free Energy=         0.003676
 Sum of electronic and zero-point Energies=            -76.239576
 Sum of electronic and thermal Energies=               -76.236740
 Sum of electronic and thermal Enthalpies=             -76.235796
 Sum of electronic and thermal Free Energies=          -76.257234
 
                     E (Thermal)             CV                S
                      KCal/Mol        Cal/Mol-Kelvin    Cal/Mol-Kelvin
 Total                   15.167              6.010             45.120
 Electronic               0.000              0.000              0.000
 Translational            0.889              2.981             34.608
 Rotational               0.889              2.981             10.504
 Vibrational             13.389              0.049              0.007
                       Q            Log10(Q)             Ln(Q)
 Total Bot       0.203793D-01         -1.690811         -3.893236
 Total V=0       0.132491D+09          8.122185         18.702023
 Vib (Bot)       0.153878D-09         -9.812823        -22.594860
 Vib (V=0)       0.100040D+01          0.000173          0.000399
 Electronic      0.100000D+01          0.000000          0.000000
 Translational   0.300432D+07          6.477746         14.915562
 Rotational      0.440825D+02          1.644266          3.786062
 ***** Axes restored to original set *****
 -------------------------------------------------------------------
 Center     Atomic                   Forces (Hartrees/Bohr)
 Number     Number              X              Y              Z
 -------------------------------------------------------------------
    1          8          -0.000074991    0.000000000   -0.000052998
    2          1           0.000015471    0.000000000    0.000057663
    3          1           0.000059520    0.000000000   -0.000004665
 -------------------------------------------------------------------
 Cartesian Forces:  Max     0.000074991 RMS     0.000041582

 GradGradGradGradGradGradGradGradGradGradGradGradGradGradGradGradGradGrad
 Berny optimization.
 Internal  Forces:  Max     0.000058352 RMS     0.000049467
 Search for a local minimum.
 Step number   1 out of a maximum of   2
 All quantities printed in internal units (Hartrees-Bohrs-Radians)
 Second derivative matrix not updated -- analytic derivatives used.
 The second derivative matrix:
                          R1        R2        A1
           R1           0.53857
           R2          -0.01015   0.53857
           A1           0.03107   0.03107   0.15876
     Eigenvalues ---    0.15360   0.53357   0.54872
 Angle between quadratic step and forces=  32.63 degrees.
 Linear search not attempted -- first point.
 Iteration  1 RMS(Cart)=  0.00010124 RMS(Int)=  0.00000001
 Iteration  2 RMS(Cart)=  0.00000001 RMS(Int)=  0.00000000
 Variable       Old X    -DE/DX   Delta X   Delta X   Delta X     New X
                                 (Linear)    (Quad)   (Total)
    R1        1.82522   0.00006   0.00000   0.00012   0.00012   1.82534
    R2        1.82522   0.00006   0.00000   0.00012   0.00012   1.82534
    A1        1.81312  -0.00002   0.00000  -0.00019  -0.00019   1.81293
         Item               Value     Threshold  Converged?
 Maximum Force            0.000058     0.000450     YES
 RMS     Force            0.000049     0.000300     YES
 Maximum Displacement     0.000116     0.001800     YES
 RMS     Displacement     0.000101     0.001200     YES
 Predicted change in Energy=-9.327803D-09
 Optimization completed.
    -- Stationary point found.
                           ----------------------------
                           !   Optimized Parameters   !
                           ! (Angstroms and Degrees)  !
 --------------------------                            --------------------------
 ! Name  Definition              Value          Derivative Info.                !
 --------------------------------------------------------------------------------
 ! R1    R(1,2)                  0.9659         -DE/DX =    0.0001              !
 ! R2    R(1,3)                  0.9659         -DE/DX =    0.0001              !
 ! A1    A(2,1,3)              103.8842         -DE/DX =    0.0                 !
 --------------------------------------------------------------------------------
 GradGradGradGradGradGradGradGradGradGradGradGradGradGradGradGradGradGrad

 1\1\GINC-POLARIS-C01\Freq\RMP2-FC\Aug-CC-pVDZ\H2O1\G060005\13-Apr-2005
 \0\\#N Geom=AllCheck Guess=Read SCRF=Check GenChk RMP2(FC)/Aug-CC-pVDZ
  Freq\\Title Card Required\\0,1\O,-0.0225145959,0.,-0.0159117432\H,0.0
 248002553,0.,0.9487930301\H,0.9026501717,0.,-0.2933358728\\Version=AM6
 4L-G03RevD.01\State=1-A1\HF=-76.0407678\MP2=-76.2609098\RMSD=5.748e-10
 \RMSF=4.158e-05\ZeroPoint=0.0213341\Thermal=0.0241696\Dipole=0.6037962
 ,0.,0.426721\DipoleDeriv=-0.3955263,0.,0.0837281,0.,-0.6571144,0.,0.08
 37281,0.,-0.4548256,0.2580716,0.,-0.0552658,0.,0.3285572,0.,-0.071175,
 0.,0.1671043,0.1374546,0.,-0.0284623,0.,0.3285572,0.,-0.0125531,0.,0.2
 877213\Polar=9.4329638,0.,8.7748457,-0.3696557,0.,9.6947677\PG=C02V [C
 2(O1),SGV(H2)]\NImag=0\\0.52917049,0.,-0.00008161,-0.10684529,0.,0.604
 84230,-0.04380238,0.,-0.05690424,0.04713525,0.,0.00004081,0.,0.,-0.000
 03368,0.00738291,0.,-0.52320402,0.00708442,0.,0.53905587,-0.48536811,0
 .,0.16374953,-0.00333287,0.,-0.01446732,0.48870099,0.,0.00004081,0.,0.
 ,-0.00000713,0.,0.,-0.00003368,0.09946239,0.,-0.08163828,0.04981982,0.
 ,-0.01585185,-0.14928221,0.,0.09749013\\0.00007499,0.,0.00005300,-0.00
 001547,0.,-0.00005766,-0.00005952,0.,0.00000466\\\@


 QUANTUM MECHANICS IS BOHRING -- M.S. GORDON
 Job cpu time:  0 days  0 hours  0 minutes 19.9 seconds.
 File lengths (MBytes):  RWF=     37 Int=      0 D2E=      0 Chk=     10 Scr=      1
 Normal termination of Gaussian 03 at Wed Apr 13 19:05:58 2005.
