 Entering Gaussian System, Link 0=g03
 Initial command:
 /usr/local/g03-em64t/g03/l1.exe /usr/scratch/NQCaaa-bbb2/Gau-1858.inp -scrdir=/usr/scratch/NQCaaa-bbb2/
 Entering Link 1 = /usr/local/g03-em64t/g03/l1.exe PID=      1859.
  
 Copyright (c) 1988,1990,1992,1993,1995,1998,2003,2004, Gaussian, Inc.
                  All Rights Reserved.
  
 This is the Gaussian(R) 03 program.  It is based on the
 the Gaussian(R) 98 system (copyright 1998, Gaussian, Inc.),
 the Gaussian(R) 94 system (copyright 1995, Gaussian, Inc.),
 the Gaussian 92(TM) system (copyright 1992, Gaussian, Inc.),
 the Gaussian 90(TM) system (copyright 1990, Gaussian, Inc.),
 the Gaussian 88(TM) system (copyright 1988, Gaussian, Inc.),
 the Gaussian 86(TM) system (copyright 1986, Carnegie Mellon
 University), and the Gaussian 82(TM) system (copyright 1983,
 Carnegie Mellon University). Gaussian is a federally registered
 trademark of Gaussian, Inc.
  
 This software contains proprietary and confidential information,
 including trade secrets, belonging to Gaussian, Inc.
  
 This software is provided under written license and may be
 used, copied, transmitted, or stored only in accord with that
 written license.
  
 The following legend is applicable only to US Government
 contracts under FAR:
  
                    RESTRICTED RIGHTS LEGEND
  
 Use, reproduction and disclosure by the US Government is
 subject to restrictions as set forth in subparagraphs (a)
 and (c) of the Commercial Computer Software - Restricted
 Rights clause in FAR 52.227-19.
  
 Gaussian, Inc.
 340 Quinnipiac St., Bldg. 40, Wallingford CT 06492
  
  
 ---------------------------------------------------------------
 Warning -- This program may not be used in any manner that
 competes with the business of Gaussian, Inc. or will provide
 assistance to any competitor of Gaussian, Inc.  The licensee
 of this program is prohibited from giving any competitor of
 Gaussian, Inc. access to this program.  By using this program,
 the user acknowledges that Gaussian, Inc. is engaged in the
 business of creating and licensing software in the field of
 computational chemistry and represents and warrants to the
 licensee that it is not a competitor of Gaussian, Inc. and that
 it will not use this program in any manner prohibited above.
 ---------------------------------------------------------------
  

 Cite this work as:
 Gaussian 03, Revision D.01,
 M. J. Frisch, G. W. Trucks, H. B. Schlegel, G. E. Scuseria, 
 M. A. Robb, J. R. Cheeseman, J. A. Montgomery, Jr., T. Vreven, 
 K. N. Kudin, J. C. Burant, J. M. Millam, S. S. Iyengar, J. Tomasi, 
 V. Barone, B. Mennucci, M. Cossi, G. Scalmani, N. Rega, 
 G. A. Petersson, H. Nakatsuji, M. Hada, M. Ehara, K. Toyota, 
 R. Fukuda, J. Hasegawa, M. Ishida, T. Nakajima, Y. Honda, O. Kitao, 
 H. Nakai, M. Klene, X. Li, J. E. Knox, H. P. Hratchian, J. B. Cross, 
 V. Bakken, C. Adamo, J. Jaramillo, R. Gomperts, R. E. Stratmann, 
 O. Yazyev, A. J. Austin, R. Cammi, C. Pomelli, J. W. Ochterski, 
 P. Y. Ayala, K. Morokuma, G. A. Voth, P. Salvador, J. J. Dannenberg, 
 V. G. Zakrzewski, S. Dapprich, A. D. Daniels, M. C. Strain, 
 O. Farkas, D. K. Malick, A. D. Rabuck, K. Raghavachari, 
 J. B. Foresman, J. V. Ortiz, Q. Cui, A. G. Baboul, S. Clifford, 
 J. Cioslowski, B. B. Stefanov, G. Liu, A. Liashenko, P. Piskorz, 
 I. Komaromi, R. L. Martin, D. J. Fox, T. Keith, M. A. Al-Laham, 
 C. Y. Peng, A. Nanayakkara, M. Challacombe, P. M. W. Gill, 
 B. Johnson, W. Chen, M. W. Wong, C. Gonzalez, and J. A. Pople, 
 Gaussian, Inc., Wallingford CT, 2004.
 
 ******************************************
 Gaussian 03:  AM64L-G03RevD.01 13-Oct-2005
                16-Apr-2007 
 ******************************************
 %chk=W2.chk
 %mem=64MW
 %nproc=1
 Will use up to    1 processors via shared memory.
 --------------------------
 # freq opt mp2/aug-cc-pvDZ
 --------------------------
 1/18=20,38=1/1,3;
 2/9=110,17=6,18=5,40=1/2;
 3/5=16,7=10,11=9,16=1,25=1,30=1/1,2,3;
 4//1;
 5/5=2,38=5/2;
 8/6=4,10=1/1;
 9/15=2,16=-3/6;
 10/5=1/2;
 6/7=2,8=2,9=2,10=2/1;
 7/12=2/1,2,3,16;
 1/18=20/3(3);
 2/9=110/2;
 6/7=2,8=2,9=2,10=2/1;
 99//99;
 2/9=110/2;
 3/5=16,7=10,11=9,16=1,25=1,30=1/1,2,3;
 4/5=5,16=3/1;
 5/5=2,38=5/2;
 8/6=4,10=1/1;
 9/15=2,16=-3/6;
 10/5=1/2;
 7/12=2/1,2,3,16;
 1/18=20/3(-8);
 2/9=110/2;
 6/7=2,8=2,9=2,10=2/1;
 99//99;
 -------------------
 Title Card Required
 -------------------
 Symbolic Z-matrix:
 Charge =  0 Multiplicity = 1
 8                     0.00882   0.04915   1.45606 
 8                    -0.00882  -0.04915  -1.45606 
 1                     0.8805   -0.08138   1.85185 
 1                    -0.39035   0.84643   1.82825 
 1                     0.01887   0.01363  -0.47611 
 1                    -0.54649  -0.79271  -1.71506 
 

 GradGradGradGradGradGradGradGradGradGradGradGradGradGradGradGradGradGrad
 Berny optimization.
 Initialization pass.
                           ----------------------------
                           !    Initial Parameters    !
                           ! (Angstroms and Degrees)  !
 --------------------------                            --------------------------
 ! Name  Definition              Value          Derivative Info.                !
 --------------------------------------------------------------------------------
 ! R1    R(1,3)                  0.9662         estimate D2E/DX2                !
 ! R2    R(1,4)                  0.9662         estimate D2E/DX2                !
 ! R3    R(1,5)                  1.9325         estimate D2E/DX2                !
 ! R4    R(2,5)                  0.9823         estimate D2E/DX2                !
 ! R5    R(2,6)                  0.9534         estimate D2E/DX2                !
 ! A1    A(3,1,4)              109.051          estimate D2E/DX2                !
 ! A2    A(3,1,5)              113.7276         estimate D2E/DX2                !
 ! A3    A(4,1,5)              113.7319         estimate D2E/DX2                !
 ! A4    A(5,2,6)              109.6774         estimate D2E/DX2                !
 ! A5    L(1,5,2,6,-1)         176.7619         estimate D2E/DX2                !
 ! A6    L(1,5,2,6,-2)         179.9899         estimate D2E/DX2                !
 ! D1    D(3,1,2,6)            116.7277         estimate D2E/DX2                !
 ! D2    D(4,1,2,6)           -116.7649         estimate D2E/DX2                !
 --------------------------------------------------------------------------------
 Trust Radius=3.00D-01 FncErr=1.00D-07 GrdErr=1.00D-07
 Number of steps in this run=  23 maximum allowed number of steps= 100.
 GradGradGradGradGradGradGradGradGradGradGradGradGradGradGradGradGradGrad

                          Input orientation:                          
 ---------------------------------------------------------------------
 Center     Atomic     Atomic              Coordinates (Angstroms)
 Number     Number      Type              X           Y           Z
 ---------------------------------------------------------------------
    1          8             0        0.008819    0.049151    1.456062
    2          8             0       -0.008819   -0.049151   -1.456062
    3          1             0        0.880497   -0.081378    1.851849
    4          1             0       -0.390347    0.846431    1.828247
    5          1             0        0.018873    0.013631   -0.476114
    6          1             0       -0.546491   -0.792706   -1.715063
 ---------------------------------------------------------------------
                    Distance matrix (angstroms):
                    1          2          3          4          5
     1  O    0.000000
     2  O    2.913836   0.000000
     3  H    0.966182   3.425521   0.000000
     4  H    0.966184   3.425539   1.573668   0.000000
     5  H    1.932529   0.982347   2.484116   2.484169   0.000000
     6  H    3.327631   0.953439   3.907063   3.907198   1.582659
                    6
     6  H    0.000000
 Stoichiometry    H4O2
 Framework group  C1[X(H4O2)]
 Deg. of freedom    12
 Full point group                 C1
 Largest Abelian subgroup         C1      NOp   1
 Largest concise Abelian subgroup C1      NOp   1
                         Standard orientation:                         
 ---------------------------------------------------------------------
 Center     Atomic     Atomic              Coordinates (Angstroms)
 Number     Number      Type              X           Y           Z
 ---------------------------------------------------------------------
    1          8             0        1.379389   -0.000067    0.093530
    2          8             0       -1.527194    0.000117   -0.111927
    3          1             0        1.802779   -0.786652   -0.274617
    4          1             0        1.802820    0.787016   -0.273509
    5          1             0       -0.545385    0.000023   -0.079419
    6          1             0       -1.877773   -0.000795    0.774718
 ---------------------------------------------------------------------
 Rotational constants (GHZ):    221.9397822      6.3804294      6.3628601
 Standard basis: Aug-CC-pVDZ (5D, 7F)
 There are    82 symmetry adapted basis functions of A   symmetry.
 Integral buffers will be    131072 words long.
 Raffenetti 1 integral format.
 Two-electron integral symmetry is turned on.
    82 basis functions,   130 primitive gaussians,    86 cartesian basis functions
    10 alpha electrons       10 beta electrons
       nuclear repulsion energy        36.4378164835 Hartrees.
 NAtoms=    6 NActive=    6 NUniq=    6 SFac= 7.50D-01 NAtFMM=   80 NAOKFM=F Big=F
 One-electron integrals computed using PRISM.
 NBasis=    82 RedAO= T  NBF=    82
 NBsUse=    82 1.00D-06 NBFU=    82
 Harris functional with IExCor=  205 diagonalized for initial guess.
 ExpMin= 2.97D-02 ExpMax= 1.17D+04 ExpMxC= 4.01D+02 IAcc=3 IRadAn=         5 AccDes= 0.00D+00
 HarFok:  IExCor= 205 AccDes= 0.00D+00 IRadAn=         5 IDoV=1
 ScaDFX=  1.000000  1.000000  1.000000  1.000000
 Initial guess orbital symmetries:
       Occupied  (A) (A) (A) (A) (A) (A) (A) (A) (A) (A)
       Virtual   (A) (A) (A) (A) (A) (A) (A) (A) (A) (A) (A) (A)
                 (A) (A) (A) (A) (A) (A) (A) (A) (A) (A) (A) (A)
                 (A) (A) (A) (A) (A) (A) (A) (A) (A) (A) (A) (A)
                 (A) (A) (A) (A) (A) (A) (A) (A) (A) (A) (A) (A)
                 (A) (A) (A) (A) (A) (A) (A) (A) (A) (A) (A) (A)
                 (A) (A) (A) (A) (A) (A) (A) (A) (A) (A) (A) (A)
 The electronic state of the initial guess is 1-A.
 Requested convergence on RMS density matrix=1.00D-08 within 128 cycles.
 Requested convergence on MAX density matrix=1.00D-06.
 Requested convergence on             energy=1.00D-06.
 No special actions if energy rises.
 Keep R1 integrals in memory in canonical form, NReq=     8192662.
 SCF Done:  E(RHF) =  -152.086422628     A.U. after   11 cycles
             Convg  =    0.3709D-08             -V/T =  2.0019
             S**2   =   0.0000
 ExpMin= 2.97D-02 ExpMax= 1.17D+04 ExpMxC= 4.01D+02 IAcc=3 IRadAn=         5 AccDes= 0.00D+00
 HarFok:  IExCor= 205 AccDes= 0.00D+00 IRadAn=         5 IDoV=1
 ScaDFX=  1.000000  1.000000  1.000000  1.000000
 Range of M.O.s used for correlation:     3    82
 NBasis=    82 NAE=    10 NBE=    10 NFC=     2 NFV=     0
 NROrb=     80 NOA=     8 NOB=     8 NVA=    72 NVB=    72
 Fully direct method using O(ONN) memory.
 JobTyp=1 Pass  1:  I=   3 to  10 NPSUse=  1 ParTrn=F ParDer=F DoDerP=T.
 Spin components of T(2) and E(2):
     alpha-alpha T2 =       0.1567232208D-01 E2=     -0.5659811745D-01
     alpha-beta  T2 =       0.8769402527D-01 E2=     -0.3289574639D+00
     beta-beta   T2 =       0.1567232208D-01 E2=     -0.5659811745D-01
 ANorm=    0.1057846241D+01
 E2 =    -0.4421536988D+00 EUMP2 =    -0.15252857632713D+03
 DoAtom=TTTTTT
          Differentiating once with respect to electric field.
                with respect to dipole field.
          Differentiating once with respect to nuclear coordinates.
          Store integrals in memory, NReq=     7820127.
          There are   1 degrees of freedom in the 1st order CPHF.
     1 vectors were produced by pass  0.
 AX will form   1 AO Fock derivatives at one time.
     1 vectors were produced by pass  1.
     1 vectors were produced by pass  2.
     1 vectors were produced by pass  3.
     1 vectors were produced by pass  4.
     1 vectors were produced by pass  5.
     1 vectors were produced by pass  6.
     1 vectors were produced by pass  7.
     1 vectors were produced by pass  8.
     1 vectors were produced by pass  9.
     1 vectors were produced by pass 10.
 Inv2:  IOpt= 1 Iter= 1 AM= 4.79D-16 Conv= 1.00D-12.
 Inverted reduced A of dimension   11 with in-core refinement.
 End of Minotr Frequency-dependent properties file   721 does not exist.

 **********************************************************************

            Population analysis using the SCF density.

 **********************************************************************

 Orbital symmetries:
       Occupied  (A) (A) (A) (A) (A) (A) (A) (A) (A) (A)
       Virtual   (A) (A) (A) (A) (A) (A) (A) (A) (A) (A) (A) (A)
                 (A) (A) (A) (A) (A) (A) (A) (A) (A) (A) (A) (A)
                 (A) (A) (A) (A) (A) (A) (A) (A) (A) (A) (A) (A)
                 (A) (A) (A) (A) (A) (A) (A) (A) (A) (A) (A) (A)
                 (A) (A) (A) (A) (A) (A) (A) (A) (A) (A) (A) (A)
                 (A) (A) (A) (A) (A) (A) (A) (A) (A) (A) (A) (A)
 The electronic state is 1-A.
 Alpha  occ. eigenvalues --  -20.60371 -20.54168  -1.37863  -1.31631  -0.75019
 Alpha  occ. eigenvalues --   -0.69930  -0.60857  -0.54862  -0.52702  -0.47578
 Alpha virt. eigenvalues --    0.02735   0.05368   0.05718   0.08822   0.16407
 Alpha virt. eigenvalues --    0.18428   0.20908   0.21216   0.22545   0.23814
 Alpha virt. eigenvalues --    0.26002   0.29138   0.29256   0.32578   0.35333
 Alpha virt. eigenvalues --    0.35836   0.38313   0.44024   0.45841   0.48823
 Alpha virt. eigenvalues --    0.52903   0.53800   0.55289   0.59219   0.64005
 Alpha virt. eigenvalues --    0.65995   0.68245   0.79165   0.81090   0.91364
 Alpha virt. eigenvalues --    0.94390   1.01420   1.11775   1.13722   1.13979
 Alpha virt. eigenvalues --    1.17153   1.20808   1.22627   1.35693   1.42367
 Alpha virt. eigenvalues --    1.44358   1.47733   1.58531   1.61082   1.63435
 Alpha virt. eigenvalues --    1.94583   1.98120   2.01631   2.04445   2.08596
 Alpha virt. eigenvalues --    2.12276   2.25134   2.39161   2.44671   2.51471
 Alpha virt. eigenvalues --    2.57009   2.60662   2.72300   2.77574   2.80296
 Alpha virt. eigenvalues --    2.98057   3.02108   3.68943   3.70382   3.70655
 Alpha virt. eigenvalues --    3.72540   3.77678   3.80318   4.05420   4.18448
 Alpha virt. eigenvalues --    4.26053   4.39231
          Condensed to atoms (all electrons):
              1          2          3          4          5          6
     1  O    7.747827  -0.028817   0.351716   0.351718  -0.006527  -0.002272
     2  O   -0.028817   7.758212  -0.001099  -0.001098   0.291557   0.355545
     3  H    0.351716  -0.001099   0.506857  -0.046854  -0.003023  -0.000301
     4  H    0.351718  -0.001098  -0.046854   0.506849  -0.003022  -0.000300
     5  H   -0.006527   0.291557  -0.003023  -0.003022   0.490702  -0.046198
     6  H   -0.002272   0.355545  -0.000301  -0.000300  -0.046198   0.567505
 Mulliken atomic charges:
              1
     1  O   -0.413645
     2  O   -0.374299
     3  H    0.192704
     4  H    0.192708
     5  H    0.276511
     6  H    0.126021
 Sum of Mulliken charges=   0.00000
 Atomic charges with hydrogens summed into heavy atoms:
              1
     1  O   -0.028233
     2  O    0.028233
     3  H    0.000000
     4  H    0.000000
     5  H    0.000000
     6  H    0.000000
 Sum of Mulliken charges=   0.00000
 Electronic spatial extent (au):  <R**2>=   191.8336
 Charge=     0.0000 electrons
 Dipole moment (field-independent basis, Debye):
    X=     3.1434    Y=    -0.0009    Z=     0.3186  Tot=     3.1595
 Quadrupole moment (field-independent basis, Debye-Ang):
   XX=   -10.7143   YY=   -11.6313   ZZ=   -12.9569
   XY=     0.0053   XZ=    -5.9260   YZ=     0.0004
 Traceless Quadrupole moment (field-independent basis, Debye-Ang):
   XX=     1.0532   YY=     0.1362   ZZ=    -1.1894
   XY=     0.0053   XZ=    -5.9260   YZ=     0.0004
 Octapole moment (field-independent basis, Debye-Ang**2):
  XXX=    12.8847  YYY=     0.0010  ZZZ=     0.9970  XYY=     6.9275
  XXY=    -0.0035  XXZ=     2.2912  XZZ=    -1.6606  YZZ=    -0.0020
  YYZ=    -0.6408  XYZ=     0.0071
 Hexadecapole moment (field-independent basis, Debye-Ang**3):
 XXXX=  -165.4776 YYYY=   -12.7786 ZZZZ=   -14.0060 XXXY=     0.0220
 XXXZ=   -24.1533 YYYX=     0.0055 YYYZ=     0.0012 ZZZX=    -4.8716
 ZZZY=    -0.0004 XXYY=   -26.9250 XXZZ=   -30.7018 YYZZ=    -4.7509
 XXYZ=     0.0008 YYXZ=    -2.3675 ZZXY=     0.0008
 N-N= 3.643781648346D+01 E-N=-4.339445766501D+02  KE= 1.517957263945D+02
 ***** Axes restored to original set *****
 -------------------------------------------------------------------
 Center     Atomic                   Forces (Hartrees/Bohr)
 Number     Number              X              Y              Z
 -------------------------------------------------------------------
    1          8          -0.003309368   -0.004691057   -0.006230066
    2          8           0.012183837    0.016844885    0.005786246
    3          1          -0.002671217    0.005901438    0.002994461
    4          1           0.006360350   -0.000693345    0.003160717
    5          1          -0.005910633   -0.008370362   -0.010738464
    6          1          -0.006652969   -0.008991558    0.005027105
 -------------------------------------------------------------------
 Cartesian Forces:  Max     0.016844885 RMS     0.007490726

 GradGradGradGradGradGradGradGradGradGradGradGradGradGradGradGradGradGrad
 Berny optimization.
 Internal  Forces:  Max     0.014192851 RMS     0.006394401
 Search for a local minimum.
 Step number   1 out of a maximum of  23
 All quantities printed in internal units (Hartrees-Bohrs-Radians)
 Second derivative matrix not updated -- first step.
 The second derivative matrix:
                          R1        R2        R3        R4        R5
           R1           0.54165
           R2           0.00000   0.54164
           R3           0.00000   0.00000   0.04825
           R4           0.00000   0.00000   0.00000   0.50932
           R5           0.00000   0.00000   0.00000   0.00000   0.56909
           A1           0.00000   0.00000   0.00000   0.00000   0.00000
           A2           0.00000   0.00000   0.00000   0.00000   0.00000
           A3           0.00000   0.00000   0.00000   0.00000   0.00000
           A4           0.00000   0.00000   0.00000   0.00000   0.00000
           A5           0.00000   0.00000   0.00000   0.00000   0.00000
           A6           0.00000   0.00000   0.00000   0.00000   0.00000
           D1           0.00000   0.00000   0.00000   0.00000   0.00000
           D2           0.00000   0.00000   0.00000   0.00000   0.00000
                          A1        A2        A3        A4        A5
           A1           0.16000
           A2           0.00000   0.16000
           A3           0.00000   0.00000   0.16000
           A4           0.00000   0.00000   0.00000   0.16000
           A5           0.00000   0.00000   0.00000   0.00000   0.25000
           A6           0.00000   0.00000   0.00000   0.00000   0.00000
           D1           0.00000   0.00000   0.00000   0.00000   0.00000
           D2           0.00000   0.00000   0.00000   0.00000   0.00000
                          A6        D1        D2
           A6           0.25000
           D1           0.00000   0.00230
           D2           0.00000   0.00000   0.00230
     Eigenvalues ---    0.00230   0.04825   0.05937   0.16000   0.16000
     Eigenvalues ---    0.16000   0.24846   0.25000   0.50931   0.54164
     Eigenvalues ---    0.54165   0.569091000.00000
 RFO step:  Lambda=-2.60743074D-03.
 Linear search not attempted -- first point.
 Iteration  1 RMS(Cart)=  0.03940530 RMS(Int)=  0.00125798
 Iteration  2 RMS(Cart)=  0.00125836 RMS(Int)=  0.00023285
 Iteration  3 RMS(Cart)=  0.00000110 RMS(Int)=  0.00023285
 Iteration  4 RMS(Cart)=  0.00000000 RMS(Int)=  0.00023285
 Variable       Old X    -DE/DX   Delta X   Delta X   Delta X     New X
                                 (Linear)    (Quad)   (Total)
    R1        1.82582  -0.00198   0.00000  -0.00364  -0.00364   1.82218
    R2        1.82582  -0.00198   0.00000  -0.00364  -0.00364   1.82218
    R3        3.65195  -0.00008   0.00000  -0.00134  -0.00134   3.65061
    R4        1.85637  -0.01143   0.00000  -0.02235  -0.02236   1.83401
    R5        1.80174   0.00940   0.00000   0.01644   0.01644   1.81818
    A1        1.90330  -0.00799   0.00000  -0.07432  -0.07482   1.82848
    A2        1.98492   0.00294   0.00000   0.00218   0.00189   1.98681
    A3        1.98500   0.00294   0.00000   0.00217   0.00188   1.98687
    A4        1.91423  -0.01419   0.00000  -0.08728  -0.08728   1.82695
    A5        3.08508   0.00136   0.00000   0.00854   0.00863   3.09371
    A6        3.14142   0.00000   0.00000   0.00000   0.00000   3.14142
    D1        2.03728   0.00319   0.00000   0.05112   0.05075   2.08803
    D2       -2.03793  -0.00319   0.00000  -0.05101  -0.05064  -2.08857
         Item               Value     Threshold  Converged?
 Maximum Force            0.014193     0.000450     NO 
 RMS     Force            0.006394     0.000300     NO 
 Maximum Displacement     0.100389     0.001800     NO 
 RMS     Displacement     0.040136     0.001200     NO 
 Predicted change in Energy=-1.322941D-03
 GradGradGradGradGradGradGradGradGradGradGradGradGradGradGradGradGradGrad

                          Input orientation:                          
 ---------------------------------------------------------------------
 Center     Atomic     Atomic              Coordinates (Angstroms)
 Number     Number      Type              X           Y           Z
 ---------------------------------------------------------------------
    1          8             0       -0.007589    0.026265    1.440381
    2          8             0        0.004554   -0.030960   -1.460627
    3          1             0        0.863984   -0.065135    1.842620
    4          1             0       -0.369647    0.835476    1.819699
    5          1             0        0.018784    0.013106   -0.491215
    6          1             0       -0.547554   -0.792775   -1.661939
 ---------------------------------------------------------------------
                    Distance matrix (angstroms):
                    1          2          3          4          5
     1  O    0.000000
     2  O    2.901598   0.000000
     3  H    0.964256   3.413390   0.000000
     4  H    0.964256   3.413396   1.527570   0.000000
     5  H    1.931821   0.970517   2.483399   2.483444   0.000000
     6  H    3.253733   0.962139   3.847575   3.847682   1.529960
                    6
     6  H    0.000000
 Stoichiometry    H4O2
 Framework group  C1[X(H4O2)]
 Deg. of freedom    12
 Full point group                 C1
 Largest Abelian subgroup         C1      NOp   1
 Largest concise Abelian subgroup C1      NOp   1
                         Standard orientation:                         
 ---------------------------------------------------------------------
 Center     Atomic     Atomic              Coordinates (Angstroms)
 Number     Number      Type              X           Y           Z
 ---------------------------------------------------------------------
    1          8             0        1.369670   -0.000138    0.100166
    2          8             0       -1.523909    0.000192   -0.115421
    3          1             0        1.797576   -0.763373   -0.304998
    4          1             0        1.797601    0.764195   -0.302897
    5          1             0       -0.554267    0.000061   -0.074190
    6          1             0       -1.806998   -0.001321    0.804127
 ---------------------------------------------------------------------
 Rotational constants (GHZ):    218.6203180      6.4428741      6.4395854
 Standard basis: Aug-CC-pVDZ (5D, 7F)
 There are    82 symmetry adapted basis functions of A   symmetry.
 Integral buffers will be    131072 words long.
 Raffenetti 1 integral format.
 Two-electron integral symmetry is turned on.
    82 basis functions,   130 primitive gaussians,    86 cartesian basis functions
    10 alpha electrons       10 beta electrons
       nuclear repulsion energy        36.5811912527 Hartrees.
 NAtoms=    6 NActive=    6 NUniq=    6 SFac= 7.50D-01 NAtFMM=   80 NAOKFM=F Big=F
 One-electron integrals computed using PRISM.
 NBasis=    82 RedAO= T  NBF=    82
 NBsUse=    82 1.00D-06 NBFU=    82
 Initial guess read from the read-write file:
 Initial guess orbital symmetries:
       Occupied  (A) (A) (A) (A) (A) (A) (A) (A) (A) (A)
       Virtual   (A) (A) (A) (A) (A) (A) (A) (A) (A) (A) (A) (A)
                 (A) (A) (A) (A) (A) (A) (A) (A) (A) (A) (A) (A)
                 (A) (A) (A) (A) (A) (A) (A) (A) (A) (A) (A) (A)
                 (A) (A) (A) (A) (A) (A) (A) (A) (A) (A) (A) (A)
                 (A) (A) (A) (A) (A) (A) (A) (A) (A) (A) (A) (A)
                 (A) (A) (A) (A) (A) (A) (A) (A) (A) (A) (A) (A)
 Harris functional with IExCor=  205 diagonalized for initial guess.
 ExpMin= 2.97D-02 ExpMax= 1.17D+04 ExpMxC= 4.01D+02 IAcc=3 IRadAn=         5 AccDes= 0.00D+00
 HarFok:  IExCor= 205 AccDes= 0.00D+00 IRadAn=         5 IDoV=1
 ScaDFX=  1.000000  1.000000  1.000000  1.000000
 Requested convergence on RMS density matrix=1.00D-08 within 128 cycles.
 Requested convergence on MAX density matrix=1.00D-06.
 Requested convergence on             energy=1.00D-06.
 No special actions if energy rises.
 Keep R1 integrals in memory in canonical form, NReq=     8192662.
 SCF Done:  E(RHF) =  -152.087719228     A.U. after   10 cycles
             Convg  =    0.4827D-08             -V/T =  2.0017
             S**2   =   0.0000
 ExpMin= 2.97D-02 ExpMax= 1.17D+04 ExpMxC= 4.01D+02 IAcc=3 IRadAn=         5 AccDes= 0.00D+00
 HarFok:  IExCor= 205 AccDes= 0.00D+00 IRadAn=         5 IDoV=1
 ScaDFX=  1.000000  1.000000  1.000000  1.000000
 Range of M.O.s used for correlation:     3    82
 NBasis=    82 NAE=    10 NBE=    10 NFC=     2 NFV=     0
 NROrb=     80 NOA=     8 NOB=     8 NVA=    72 NVB=    72
 Fully direct method using O(ONN) memory.
 JobTyp=1 Pass  1:  I=   3 to  10 NPSUse=  1 ParTrn=F ParDer=F DoDerP=T.
 Spin components of T(2) and E(2):
     alpha-alpha T2 =       0.1567165069D-01 E2=     -0.5661186477D-01
     alpha-beta  T2 =       0.8769598329D-01 E2=     -0.3290746303D+00
     beta-beta   T2 =       0.1567165069D-01 E2=     -0.5661186477D-01
 ANorm=    0.1057846532D+01
 E2 =    -0.4422983598D+00 EUMP2 =    -0.15253001758785D+03
 DoAtom=TTTTTT
          Differentiating once with respect to electric field.
                with respect to dipole field.
          Differentiating once with respect to nuclear coordinates.
          Store integrals in memory, NReq=     7820127.
          There are   1 degrees of freedom in the 1st order CPHF.
     1 vectors were produced by pass  0.
 AX will form   1 AO Fock derivatives at one time.
     1 vectors were produced by pass  1.
     1 vectors were produced by pass  2.
     1 vectors were produced by pass  3.
     1 vectors were produced by pass  4.
     1 vectors were produced by pass  5.
     1 vectors were produced by pass  6.
     1 vectors were produced by pass  7.
     1 vectors were produced by pass  8.
     1 vectors were produced by pass  9.
     1 vectors were produced by pass 10.
 Inv2:  IOpt= 1 Iter= 1 AM= 2.81D-16 Conv= 1.00D-12.
 Inverted reduced A of dimension   11 with in-core refinement.
 End of Minotr Frequency-dependent properties file   721 does not exist.
 ***** Axes restored to original set *****
 -------------------------------------------------------------------
 Center     Atomic                   Forces (Hartrees/Bohr)
 Number     Number              X              Y              Z
 -------------------------------------------------------------------
    1          8          -0.001157171   -0.001633717   -0.001830159
    2          8           0.002573076    0.003460921   -0.002507632
    3          1           0.001706406    0.000291475    0.001191839
    4          1          -0.000271094    0.001735057    0.001154292
    5          1          -0.001381049   -0.001852325    0.001470197
    6          1          -0.001470170   -0.002001412    0.000521463
 -------------------------------------------------------------------
 Cartesian Forces:  Max     0.003460921 RMS     0.001748283

 GradGradGradGradGradGradGradGradGradGradGradGradGradGradGradGradGradGrad
 Berny optimization.
 Internal  Forces:  Max     0.002319229 RMS     0.001362789
 Search for a local minimum.
 Step number   2 out of a maximum of  23
 All quantities printed in internal units (Hartrees-Bohrs-Radians)
 Update second derivatives using D2CorX and points  1  2
 Trust test= 1.09D+00 RLast= 1.39D-01 DXMaxT set to 4.16D-01
 The second derivative matrix:
                          R1        R2        R3        R4        R5
           R1           0.54686
           R2           0.00521   0.54686
           R3           0.00094   0.00094   0.04840
           R4           0.01371   0.01371   0.00303   0.53379
           R5          -0.00474  -0.00474  -0.00153   0.00166   0.55615
           A1           0.00324   0.00324   0.00154  -0.01156   0.02156
           A2          -0.00410  -0.00410  -0.00063  -0.01313   0.00658
           A3          -0.00410  -0.00410  -0.00063  -0.01313   0.00659
           A4           0.01003   0.01003   0.00272   0.00737   0.01407
           A5           0.00199   0.00200   0.00010   0.01069  -0.00846
           A6           0.00000   0.00000   0.00000   0.00001   0.00000
           D1          -0.00475  -0.00475  -0.00071  -0.01563   0.00815
           D2           0.00475   0.00475   0.00071   0.01563  -0.00815
                          A1        A2        A3        A4        A5
           A1           0.12719
           A2          -0.00660   0.16276
           A3          -0.00661   0.00276   0.16276
           A4          -0.02673  -0.01173  -0.01174   0.14811
           A5           0.01068  -0.00047  -0.00047   0.01278   0.24820
           A6           0.00001   0.00000   0.00000   0.00001   0.00000
           D1          -0.00840   0.00310   0.00310  -0.01429  -0.00034
           D2           0.00840  -0.00310  -0.00310   0.01429   0.00034
                          A6        D1        D2
           A6           0.25000
           D1           0.00000   0.00578
           D2           0.00000  -0.00348   0.00578
     Eigenvalues ---    0.00230   0.04815   0.06263   0.14480   0.16000
     Eigenvalues ---    0.16045   0.24863   0.25000   0.52102   0.54165
     Eigenvalues ---    0.55586   0.567281000.00000
 RFO step:  Lambda=-6.52568351D-05.
 Quartic linear search produced a step of  0.09456.
 Iteration  1 RMS(Cart)=  0.00584285 RMS(Int)=  0.00003275
 Iteration  2 RMS(Cart)=  0.00003004 RMS(Int)=  0.00002258
 Iteration  3 RMS(Cart)=  0.00000000 RMS(Int)=  0.00002258
 Variable       Old X    -DE/DX   Delta X   Delta X   Delta X     New X
                                 (Linear)    (Quad)   (Total)
    R1        1.82218   0.00201  -0.00034   0.00432   0.00398   1.82616
    R2        1.82218   0.00201  -0.00034   0.00432   0.00398   1.82616
    R3        3.65061   0.00051  -0.00013   0.01178   0.01165   3.66227
    R4        1.83401   0.00190  -0.00211   0.00568   0.00357   1.83758
    R5        1.81818   0.00232   0.00155   0.00329   0.00484   1.82302
    A1        1.82848  -0.00061  -0.00708  -0.00114  -0.00826   1.82021
    A2        1.98681   0.00037   0.00018   0.00074   0.00089   1.98770
    A3        1.98687   0.00037   0.00018   0.00073   0.00088   1.98776
    A4        1.82695  -0.00187  -0.00825  -0.00625  -0.01450   1.81245
    A5        3.09371   0.00156   0.00082   0.00653   0.00735   3.10106
    A6        3.14142   0.00000   0.00000   0.00000   0.00001   3.14143
    D1        2.08803   0.00032   0.00480   0.00113   0.00589   2.09392
    D2       -2.08857  -0.00032  -0.00479  -0.00095  -0.00570  -2.09428
         Item               Value     Threshold  Converged?
 Maximum Force            0.002319     0.000450     NO 
 RMS     Force            0.001363     0.000300     NO 
 Maximum Displacement     0.011557     0.001800     NO 
 RMS     Displacement     0.005838     0.001200     NO 
 Predicted change in Energy=-4.480904D-05
 GradGradGradGradGradGradGradGradGradGradGradGradGradGradGradGradGradGrad

                          Input orientation:                          
 ---------------------------------------------------------------------
 Center     Atomic     Atomic              Coordinates (Angstroms)
 Number     Number      Type              X           Y           Z
 ---------------------------------------------------------------------
    1          8             0       -0.009141    0.024180    1.442597
    2          8             0        0.006424   -0.028591   -1.466743
    3          1             0        0.864543   -0.062951    1.846258
    4          1             0       -0.367860    0.836713    1.823343
    5          1             0        0.016751    0.010189   -0.495166
    6          1             0       -0.548185   -0.793562   -1.661371
 ---------------------------------------------------------------------
                    Distance matrix (angstroms):
                    1          2          3          4          5
     1  O    0.000000
     2  O    2.909860   0.000000
     3  H    0.966363   3.422503   0.000000
     4  H    0.966362   3.422500   1.526020   0.000000
     5  H    1.937987   0.972405   2.491259   2.491296   0.000000
     6  H    3.254826   0.964702   3.851370   3.851434   1.524861
                    6
     6  H    0.000000
 Stoichiometry    H4O2
 Framework group  C1[X(H4O2)]
 Deg. of freedom    12
 Full point group                 C1
 Largest Abelian subgroup         C1      NOp   1
 Largest concise Abelian subgroup C1      NOp   1
                         Standard orientation:                         
 ---------------------------------------------------------------------
 Center     Atomic     Atomic              Coordinates (Angstroms)
 Number     Number      Type              X           Y           Z
 ---------------------------------------------------------------------
    1          8             0        1.373162   -0.000105    0.100993
    2          8             0       -1.528580    0.000145   -0.116224
    3          1             0        1.802244   -0.762690   -0.309140
    4          1             0        1.802253    0.763329   -0.307547
    5          1             0       -0.557283    0.000024   -0.069829
    6          1             0       -1.803867   -0.000986    0.808366
 ---------------------------------------------------------------------
 Rotational constants (GHZ):    217.3356564      6.4082545      6.4064980
 Standard basis: Aug-CC-pVDZ (5D, 7F)
 There are    82 symmetry adapted basis functions of A   symmetry.
 Integral buffers will be    131072 words long.
 Raffenetti 1 integral format.
 Two-electron integral symmetry is turned on.
    82 basis functions,   130 primitive gaussians,    86 cartesian basis functions
    10 alpha electrons       10 beta electrons
       nuclear repulsion energy        36.4946378017 Hartrees.
 NAtoms=    6 NActive=    6 NUniq=    6 SFac= 7.50D-01 NAtFMM=   80 NAOKFM=F Big=F
 One-electron integrals computed using PRISM.
 NBasis=    82 RedAO= T  NBF=    82
 NBsUse=    82 1.00D-06 NBFU=    82
 Initial guess read from the read-write file:
 Initial guess orbital symmetries:
       Occupied  (A) (A) (A) (A) (A) (A) (A) (A) (A) (A)
       Virtual   (A) (A) (A) (A) (A) (A) (A) (A) (A) (A) (A) (A)
                 (A) (A) (A) (A) (A) (A) (A) (A) (A) (A) (A) (A)
                 (A) (A) (A) (A) (A) (A) (A) (A) (A) (A) (A) (A)
                 (A) (A) (A) (A) (A) (A) (A) (A) (A) (A) (A) (A)
                 (A) (A) (A) (A) (A) (A) (A) (A) (A) (A) (A) (A)
                 (A) (A) (A) (A) (A) (A) (A) (A) (A) (A) (A) (A)
 Requested convergence on RMS density matrix=1.00D-08 within 128 cycles.
 Requested convergence on MAX density matrix=1.00D-06.
 Requested convergence on             energy=1.00D-06.
 No special actions if energy rises.
 Keep R1 integrals in memory in canonical form, NReq=     8192662.
 SCF Done:  E(RHF) =  -152.087337293     A.U. after    8 cycles
             Convg  =    0.5661D-08             -V/T =  2.0019
             S**2   =   0.0000
 ExpMin= 2.97D-02 ExpMax= 1.17D+04 ExpMxC= 4.01D+02 IAcc=3 IRadAn=         5 AccDes= 0.00D+00
 HarFok:  IExCor= 205 AccDes= 0.00D+00 IRadAn=         5 IDoV=1
 ScaDFX=  1.000000  1.000000  1.000000  1.000000
 Range of M.O.s used for correlation:     3    82
 NBasis=    82 NAE=    10 NBE=    10 NFC=     2 NFV=     0
 NROrb=     80 NOA=     8 NOB=     8 NVA=    72 NVB=    72
 Fully direct method using O(ONN) memory.
 JobTyp=1 Pass  1:  I=   3 to  10 NPSUse=  1 ParTrn=F ParDer=F DoDerP=T.
 Spin components of T(2) and E(2):
     alpha-alpha T2 =       0.1571260231D-01 E2=     -0.5665973129D-01
     alpha-beta  T2 =       0.8796255180D-01 E2=     -0.3294136391D+00
     beta-beta   T2 =       0.1571260231D-01 E2=     -0.5665973129D-01
 ANorm=    0.1058011227D+01
 E2 =    -0.4427331017D+00 EUMP2 =    -0.15253007039512D+03
 DoAtom=TTTTTT
          Differentiating once with respect to electric field.
                with respect to dipole field.
          Differentiating once with respect to nuclear coordinates.
          Store integrals in memory, NReq=     7820127.
          There are   1 degrees of freedom in the 1st order CPHF.
     1 vectors were produced by pass  0.
 AX will form   1 AO Fock derivatives at one time.
     1 vectors were produced by pass  1.
     1 vectors were produced by pass  2.
     1 vectors were produced by pass  3.
     1 vectors were produced by pass  4.
     1 vectors were produced by pass  5.
     1 vectors were produced by pass  6.
     1 vectors were produced by pass  7.
     1 vectors were produced by pass  8.
     1 vectors were produced by pass  9.
     1 vectors were produced by pass 10.
 Inv2:  IOpt= 1 Iter= 1 AM= 2.53D-16 Conv= 1.00D-12.
 Inverted reduced A of dimension   11 with in-core refinement.
 End of Minotr Frequency-dependent properties file   721 does not exist.
 ***** Axes restored to original set *****
 -------------------------------------------------------------------
 Center     Atomic                   Forces (Hartrees/Bohr)
 Number     Number              X              Y              Z
 -------------------------------------------------------------------
    1          8           0.000181181    0.000251481    0.000207377
    2          8           0.000540156    0.000729599   -0.000346400
    3          1           0.000107899   -0.000013269    0.000084319
    4          1          -0.000047854    0.000100445    0.000080694
    5          1          -0.000692709   -0.000945507    0.000031952
    6          1          -0.000088673   -0.000122751   -0.000057942
 -------------------------------------------------------------------
 Cartesian Forces:  Max     0.000945507 RMS     0.000374322

 GradGradGradGradGradGradGradGradGradGradGradGradGradGradGradGradGradGrad
 Berny optimization.
 Internal  Forces:  Max     0.001450642 RMS     0.000436835
 Search for a local minimum.
 Step number   3 out of a maximum of  23
 All quantities printed in internal units (Hartrees-Bohrs-Radians)
 Update second derivatives using D2CorX and points  1  2  3
 Trust test= 1.18D+00 RLast= 2.46D-02 DXMaxT set to 4.16D-01
 The second derivative matrix:
                          R1        R2        R3        R4        R5
           R1           0.54851
           R2           0.00687   0.54851
           R3          -0.00651  -0.00651   0.04602
           R4           0.00837   0.00837  -0.00348   0.52488
           R5          -0.00169  -0.00169  -0.01119  -0.00451   0.56108
           A1          -0.00124  -0.00125   0.00436  -0.01202   0.01544
           A2          -0.00499  -0.00499  -0.00233  -0.01505   0.00552
           A3          -0.00496  -0.00496  -0.00232  -0.01503   0.00557
           A4           0.00186   0.00186   0.01068   0.00895   0.00262
           A5          -0.02810  -0.02809  -0.00769  -0.01403  -0.04768
           A6          -0.00002  -0.00002  -0.00001  -0.00001  -0.00003
           D1          -0.00399  -0.00399  -0.00203  -0.01624   0.00924
           D2           0.00399   0.00399   0.00203   0.01624  -0.00925
                          A1        A2        A3        A4        A5
           A1           0.13081
           A2          -0.00690   0.16231
           A3          -0.00692   0.00232   0.16233
           A4          -0.01877  -0.01182  -0.01186   0.16485
           A5           0.02297  -0.00703  -0.00700   0.04641   0.22396
           A6           0.00001   0.00000   0.00000   0.00003  -0.00002
           D1          -0.00939   0.00301   0.00301  -0.01626  -0.00579
           D2           0.00939  -0.00301  -0.00302   0.01626   0.00578
                          A6        D1        D2
           A6           0.25000
           D1           0.00000   0.00598
           D2           0.00000  -0.00368   0.00598
     Eigenvalues ---    0.00230   0.04197   0.06429   0.13853   0.16000
     Eigenvalues ---    0.16055   0.24292   0.25000   0.52099   0.54165
     Eigenvalues ---    0.56401   0.568731000.00000
 RFO step:  Lambda=-1.27272341D-05.
 Quartic linear search produced a step of  0.25141.
 Iteration  1 RMS(Cart)=  0.00567604 RMS(Int)=  0.00000976
 Iteration  2 RMS(Cart)=  0.00001202 RMS(Int)=  0.00000107
 Iteration  3 RMS(Cart)=  0.00000000 RMS(Int)=  0.00000107
 Variable       Old X    -DE/DX   Delta X   Delta X   Delta X     New X
                                 (Linear)    (Quad)   (Total)
    R1        1.82616   0.00013   0.00100  -0.00018   0.00082   1.82698
    R2        1.82616   0.00013   0.00100  -0.00018   0.00082   1.82698
    R3        3.66227   0.00037   0.00293   0.00820   0.01113   3.67339
    R4        1.83758   0.00038   0.00090   0.00025   0.00115   1.83873
    R5        1.82302   0.00016   0.00122   0.00000   0.00122   1.82425
    A1        1.82021   0.00008  -0.00208   0.00019  -0.00189   1.81832
    A2        1.98770   0.00010   0.00022   0.00042   0.00064   1.98835
    A3        1.98776   0.00010   0.00022   0.00041   0.00063   1.98839
    A4        1.81245   0.00005  -0.00365   0.00100  -0.00264   1.80980
    A5        3.10106   0.00145   0.00185   0.00650   0.00835   3.10941
    A6        3.14143   0.00000   0.00000   0.00000   0.00001   3.14143
    D1        2.09392   0.00006   0.00148   0.00049   0.00197   2.09589
    D2       -2.09428  -0.00006  -0.00143  -0.00033  -0.00176  -2.09604
         Item               Value     Threshold  Converged?
 Maximum Force            0.001451     0.000450     NO 
 RMS     Force            0.000437     0.000300     NO 
 Maximum Displacement     0.010942     0.001800     NO 
 RMS     Displacement     0.005671     0.001200     NO 
 Predicted change in Energy=-8.563512D-06
 GradGradGradGradGradGradGradGradGradGradGradGradGradGradGradGradGradGrad

                          Input orientation:                          
 ---------------------------------------------------------------------
 Center     Atomic     Atomic              Coordinates (Angstroms)
 Number     Number      Type              X           Y           Z
 ---------------------------------------------------------------------
    1          8             0       -0.009036    0.024404    1.446460
    2          8             0        0.006737   -0.028276   -1.469575
    3          1             0        0.865496   -0.061179    1.849659
    4          1             0       -0.366582    0.838193    1.826731
    5          1             0        0.013834    0.006107   -0.497195
    6          1             0       -0.547917   -0.793271   -1.667161
 ---------------------------------------------------------------------
                    Distance matrix (angstroms):
                    1          2          3          4          5
     1  O    0.000000
     2  O    2.916553   0.000000
     3  H    0.966799   3.428682   0.000000
     4  H    0.966798   3.428669   1.525585   0.000000
     5  H    1.943876   0.973013   2.497515   2.497543   0.000000
     6  H    3.263988   0.965349   3.860274   3.860290   1.524267
                    6
     6  H    0.000000
 Stoichiometry    H4O2
 Framework group  C1[X(H4O2)]
 Deg. of freedom    12
 Full point group                 C1
 Largest Abelian subgroup         C1      NOp   1
 Largest concise Abelian subgroup C1      NOp   1
                         Standard orientation:                         
 ---------------------------------------------------------------------
 Center     Atomic     Atomic              Coordinates (Angstroms)
 Number     Number      Type              X           Y           Z
 ---------------------------------------------------------------------
    1          8             0        1.376654   -0.000046    0.101249
    2          8             0       -1.531748    0.000067   -0.116653
    3          1             0        1.805417   -0.762645   -0.310218
    4          1             0        1.805407    0.762940   -0.309508
    5          1             0       -0.560118   -0.000026   -0.064782
    6          1             0       -1.809957   -0.000435    0.807737
 ---------------------------------------------------------------------
 Rotational constants (GHZ):    217.2032135      6.3791487      6.3776300
 Standard basis: Aug-CC-pVDZ (5D, 7F)
 There are    82 symmetry adapted basis functions of A   symmetry.
 Integral buffers will be    131072 words long.
 Raffenetti 1 integral format.
 Two-electron integral symmetry is turned on.
    82 basis functions,   130 primitive gaussians,    86 cartesian basis functions
    10 alpha electrons       10 beta electrons
       nuclear repulsion energy        36.4421324080 Hartrees.
 NAtoms=    6 NActive=    6 NUniq=    6 SFac= 7.50D-01 NAtFMM=   80 NAOKFM=F Big=F
 One-electron integrals computed using PRISM.
 NBasis=    82 RedAO= T  NBF=    82
 NBsUse=    82 1.00D-06 NBFU=    82
 Initial guess read from the read-write file:
 Initial guess orbital symmetries:
       Occupied  (A) (A) (A) (A) (A) (A) (A) (A) (A) (A)
       Virtual   (A) (A) (A) (A) (A) (A) (A) (A) (A) (A) (A) (A)
                 (A) (A) (A) (A) (A) (A) (A) (A) (A) (A) (A) (A)
                 (A) (A) (A) (A) (A) (A) (A) (A) (A) (A) (A) (A)
                 (A) (A) (A) (A) (A) (A) (A) (A) (A) (A) (A) (A)
                 (A) (A) (A) (A) (A) (A) (A) (A) (A) (A) (A) (A)
                 (A) (A) (A) (A) (A) (A) (A) (A) (A) (A) (A) (A)
 Requested convergence on RMS density matrix=1.00D-08 within 128 cycles.
 Requested convergence on MAX density matrix=1.00D-06.
 Requested convergence on             energy=1.00D-06.
 No special actions if energy rises.
 Keep R1 integrals in memory in canonical form, NReq=     8192662.
 SCF Done:  E(RHF) =  -152.087265017     A.U. after    8 cycles
             Convg  =    0.3836D-08             -V/T =  2.0019
             S**2   =   0.0000
 ExpMin= 2.97D-02 ExpMax= 1.17D+04 ExpMxC= 4.01D+02 IAcc=3 IRadAn=         5 AccDes= 0.00D+00
 HarFok:  IExCor= 205 AccDes= 0.00D+00 IRadAn=         5 IDoV=1
 ScaDFX=  1.000000  1.000000  1.000000  1.000000
 Range of M.O.s used for correlation:     3    82
 NBasis=    82 NAE=    10 NBE=    10 NFC=     2 NFV=     0
 NROrb=     80 NOA=     8 NOB=     8 NVA=    72 NVB=    72
 Fully direct method using O(ONN) memory.
 JobTyp=1 Pass  1:  I=   3 to  10 NPSUse=  1 ParTrn=F ParDer=F DoDerP=T.
 Spin components of T(2) and E(2):
     alpha-alpha T2 =       0.1572177977D-01 E2=     -0.5666586551D-01
     alpha-beta  T2 =       0.8803066784D-01 E2=     -0.3294878122D+00
     beta-beta   T2 =       0.1572177977D-01 E2=     -0.5666586551D-01
 ANorm=    0.1058052091D+01
 E2 =    -0.4428195432D+00 EUMP2 =    -0.15253008456041D+03
 DoAtom=TTTTTT
          Differentiating once with respect to electric field.
                with respect to dipole field.
          Differentiating once with respect to nuclear coordinates.
          Store integrals in memory, NReq=     7820127.
          There are   1 degrees of freedom in the 1st order CPHF.
     1 vectors were produced by pass  0.
 AX will form   1 AO Fock derivatives at one time.
     1 vectors were produced by pass  1.
     1 vectors were produced by pass  2.
     1 vectors were produced by pass  3.
     1 vectors were produced by pass  4.
     1 vectors were produced by pass  5.
     1 vectors were produced by pass  6.
     1 vectors were produced by pass  7.
     1 vectors were produced by pass  8.
     1 vectors were produced by pass  9.
     1 vectors were produced by pass 10.
 Inv2:  IOpt= 1 Iter= 1 AM= 3.07D-16 Conv= 1.00D-12.
 Inverted reduced A of dimension   11 with in-core refinement.
 End of Minotr Frequency-dependent properties file   721 does not exist.
 ***** Axes restored to original set *****
 -------------------------------------------------------------------
 Center     Atomic                   Forces (Hartrees/Bohr)
 Number     Number              X              Y              Z
 -------------------------------------------------------------------
    1          8           0.000447602    0.000625463    0.000551228
    2          8           0.000050566    0.000076811    0.000355568
    3          1          -0.000217225   -0.000086226   -0.000160944
    4          1          -0.000012291   -0.000235734   -0.000157783
    5          1          -0.000524263   -0.000727214   -0.000453519
    6          1           0.000255610    0.000346900   -0.000134551
 -------------------------------------------------------------------
 Cartesian Forces:  Max     0.000727214 RMS     0.000365497

 GradGradGradGradGradGradGradGradGradGradGradGradGradGradGradGradGradGrad
 Berny optimization.
 Internal  Forces:  Max     0.001348551 RMS     0.000432693
 Search for a local minimum.
 Step number   4 out of a maximum of  23
 All quantities printed in internal units (Hartrees-Bohrs-Radians)
 Update second derivatives using D2CorX and points  1  2  3  4
 Trust test= 1.65D+00 RLast= 1.47D-02 DXMaxT set to 4.16D-01
 The second derivative matrix:
                          R1        R2        R3        R4        R5
           R1           0.59281
           R2           0.05116   0.59280
           R3          -0.00125  -0.00125   0.04100
           R4           0.06802   0.06802   0.00059   0.60014
           R5           0.05281   0.05281  -0.00222   0.07280   0.63083
           A1          -0.01626  -0.01627   0.00034  -0.03620  -0.00288
           A2           0.00095   0.00095  -0.00172  -0.00655   0.01398
           A3           0.00100   0.00099  -0.00168  -0.00650   0.01404
           A4          -0.03645  -0.03645   0.00112  -0.04975  -0.04454
           A5          -0.04818  -0.04818  -0.03659  -0.05341  -0.06748
           A6          -0.00003  -0.00003  -0.00002  -0.00003  -0.00004
           D1           0.00116   0.00116  -0.00060  -0.00811   0.01605
           D2          -0.00115  -0.00115   0.00059   0.00812  -0.01604
                          A1        A2        A3        A4        A5
           A1           0.13427
           A2          -0.00928   0.16342
           A3          -0.00930   0.00343   0.16344
           A4          -0.00851  -0.01780  -0.01784   0.19321
           A5           0.02349  -0.01190  -0.01176   0.04784   0.11270
           A6           0.00001  -0.00001  -0.00001   0.00003  -0.00010
           D1          -0.01091   0.00396   0.00397  -0.02037  -0.00598
           D2           0.01091  -0.00396  -0.00397   0.02036   0.00595
                          A6        D1        D2
           A6           0.25000
           D1           0.00000   0.00664
           D2           0.00000  -0.00434   0.00663
     Eigenvalues ---    0.00230   0.01949   0.06417   0.10483   0.16000
     Eigenvalues ---    0.16072   0.19839   0.25000   0.52163   0.54165
     Eigenvalues ---    0.56455   0.821941000.00000
 RFO step:  Lambda=-1.88108622D-05.
 Quartic linear search produced a step of  1.90522.
 Iteration  1 RMS(Cart)=  0.01713285 RMS(Int)=  0.00010494
 Iteration  2 RMS(Cart)=  0.00012897 RMS(Int)=  0.00000829
 Iteration  3 RMS(Cart)=  0.00000001 RMS(Int)=  0.00000829
 Variable       Old X    -DE/DX   Delta X   Delta X   Delta X     New X
                                 (Linear)    (Quad)   (Total)
    R1        1.82698  -0.00026   0.00157  -0.00039   0.00118   1.82816
    R2        1.82698  -0.00026   0.00157  -0.00039   0.00118   1.82816
    R3        3.67339   0.00023   0.02120   0.00893   0.03013   3.70352
    R4        1.83873  -0.00024   0.00219  -0.00090   0.00129   1.84002
    R5        1.82425  -0.00039   0.00233  -0.00079   0.00154   1.82579
    A1        1.81832   0.00024  -0.00360   0.00158  -0.00204   1.81628
    A2        1.98835   0.00002   0.00123   0.00032   0.00154   1.98988
    A3        1.98839   0.00002   0.00120   0.00030   0.00150   1.98988
    A4        1.80980   0.00040  -0.00504   0.00242  -0.00261   1.80719
    A5        3.10941   0.00135   0.01590   0.01075   0.02666   3.13607
    A6        3.14143   0.00000   0.00001   0.00001   0.00002   3.14145
    D1        2.09589   0.00000   0.00375   0.00021   0.00394   2.09983
    D2       -2.09604   0.00000  -0.00336  -0.00001  -0.00335  -2.09939
         Item               Value     Threshold  Converged?
 Maximum Force            0.001349     0.000450     NO 
 RMS     Force            0.000433     0.000300     NO 
 Maximum Displacement     0.036795     0.001800     NO 
 RMS     Displacement     0.017096     0.001200     NO 
 Predicted change in Energy=-1.977295D-05
 GradGradGradGradGradGradGradGradGradGradGradGradGradGradGradGradGradGrad

                          Input orientation:                          
 ---------------------------------------------------------------------
 Center     Atomic     Atomic              Coordinates (Angstroms)
 Number     Number      Type              X           Y           Z
 ---------------------------------------------------------------------
    1          8             0       -0.008008    0.026052    1.457951
    2          8             0        0.007095   -0.028049   -1.475014
    3          1             0        0.868703   -0.056330    1.858568
    4          1             0       -0.363263    0.842804    1.835592
    5          1             0        0.004248   -0.007225   -0.501546
    6          1             0       -0.546242   -0.791272   -1.686632
 ---------------------------------------------------------------------
                    Distance matrix (angstroms):
                    1          2          3          4          5
     1  O    0.000000
     2  O    2.933502   0.000000
     3  H    0.967421   3.443245   0.000000
     4  H    0.967421   3.443206   1.525356   0.000000
     5  H    1.959818   0.973695   2.513928   2.513927   0.000000
     6  H    3.293344   0.966164   3.887242   3.887126   1.523876
                    6
     6  H    0.000000
 Stoichiometry    H4O2
 Framework group  C1[X(H4O2)]
 Deg. of freedom    12
 Full point group                 C1
 Largest Abelian subgroup         C1      NOp   1
 Largest concise Abelian subgroup C1      NOp   1
                         Standard orientation:                         
 ---------------------------------------------------------------------
 Center     Atomic     Atomic              Coordinates (Angstroms)
 Number     Number      Type              X           Y           Z
 ---------------------------------------------------------------------
    1          8             0       -1.386030   -0.000125    0.101752
    2          8             0        1.539246    0.000162   -0.117786
    3          1             0       -1.812792    0.763039   -0.312202
    4          1             0       -1.812735   -0.762316   -0.314052
    5          1             0        0.568019    0.000130   -0.048500
    6          1             0        1.831784   -0.001149    0.803025
 ---------------------------------------------------------------------
 Rotational constants (GHZ):    217.3085408      6.3053864      6.3038690
 Standard basis: Aug-CC-pVDZ (5D, 7F)
 There are    82 symmetry adapted basis functions of A   symmetry.
 Integral buffers will be    131072 words long.
 Raffenetti 1 integral format.
 Two-electron integral symmetry is turned on.
    82 basis functions,   130 primitive gaussians,    86 cartesian basis functions
    10 alpha electrons       10 beta electrons
       nuclear repulsion energy        36.3184247826 Hartrees.
 NAtoms=    6 NActive=    6 NUniq=    6 SFac= 7.50D-01 NAtFMM=   80 NAOKFM=F Big=F
 One-electron integrals computed using PRISM.
 NBasis=    82 RedAO= T  NBF=    82
 NBsUse=    82 1.00D-06 NBFU=    82
 Initial guess read from the read-write file:
 Initial guess orbital symmetries:
       Occupied  (A) (A) (A) (A) (A) (A) (A) (A) (A) (A)
       Virtual   (A) (A) (A) (A) (A) (A) (A) (A) (A) (A) (A) (A)
                 (A) (A) (A) (A) (A) (A) (A) (A) (A) (A) (A) (A)
                 (A) (A) (A) (A) (A) (A) (A) (A) (A) (A) (A) (A)
                 (A) (A) (A) (A) (A) (A) (A) (A) (A) (A) (A) (A)
                 (A) (A) (A) (A) (A) (A) (A) (A) (A) (A) (A) (A)
                 (A) (A) (A) (A) (A) (A) (A) (A) (A) (A) (A) (A)
 Harris functional with IExCor=  205 diagonalized for initial guess.
 ExpMin= 2.97D-02 ExpMax= 1.17D+04 ExpMxC= 4.01D+02 IAcc=3 IRadAn=         5 AccDes= 0.00D+00
 HarFok:  IExCor= 205 AccDes= 0.00D+00 IRadAn=         5 IDoV=1
 ScaDFX=  1.000000  1.000000  1.000000  1.000000
 Requested convergence on RMS density matrix=1.00D-08 within 128 cycles.
 Requested convergence on MAX density matrix=1.00D-06.
 Requested convergence on             energy=1.00D-06.
 No special actions if energy rises.
 Keep R1 integrals in memory in canonical form, NReq=     8192662.
 SCF Done:  E(RHF) =  -152.087216558     A.U. after   12 cycles
             Convg  =    0.4142D-08             -V/T =  2.0019
             S**2   =   0.0000
 ExpMin= 2.97D-02 ExpMax= 1.17D+04 ExpMxC= 4.01D+02 IAcc=3 IRadAn=         5 AccDes= 0.00D+00
 HarFok:  IExCor= 205 AccDes= 0.00D+00 IRadAn=         5 IDoV=1
 ScaDFX=  1.000000  1.000000  1.000000  1.000000
 Range of M.O.s used for correlation:     3    82
 NBasis=    82 NAE=    10 NBE=    10 NFC=     2 NFV=     0
 NROrb=     80 NOA=     8 NOB=     8 NVA=    72 NVB=    72
 Fully direct method using O(ONN) memory.
 JobTyp=1 Pass  1:  I=   3 to  10 NPSUse=  1 ParTrn=F ParDer=F DoDerP=T.
 Spin components of T(2) and E(2):
     alpha-alpha T2 =       0.1573203113D-01 E2=     -0.5666361636D-01
     alpha-beta  T2 =       0.8812422559D-01 E2=     -0.3295685240D+00
     beta-beta   T2 =       0.1573203113D-01 E2=     -0.5666361636D-01
 ANorm=    0.1058105991D+01
 E2 =    -0.4428957567D+00 EUMP2 =    -0.15253011231455D+03
 DoAtom=TTTTTT
          Differentiating once with respect to electric field.
                with respect to dipole field.
          Differentiating once with respect to nuclear coordinates.
          Store integrals in memory, NReq=     7820127.
          There are   1 degrees of freedom in the 1st order CPHF.
     1 vectors were produced by pass  0.
 AX will form   1 AO Fock derivatives at one time.
     1 vectors were produced by pass  1.
     1 vectors were produced by pass  2.
     1 vectors were produced by pass  3.
     1 vectors were produced by pass  4.
     1 vectors were produced by pass  5.
     1 vectors were produced by pass  6.
     1 vectors were produced by pass  7.
     1 vectors were produced by pass  8.
     1 vectors were produced by pass  9.
     1 vectors were produced by pass 10.
 Inv2:  IOpt= 1 Iter= 1 AM= 2.98D-16 Conv= 1.00D-12.
 Inverted reduced A of dimension   11 with in-core refinement.
 End of Minotr Frequency-dependent properties file   721 does not exist.
 ***** Axes restored to original set *****
 -------------------------------------------------------------------
 Center     Atomic                   Forces (Hartrees/Bohr)
 Number     Number              X              Y              Z
 -------------------------------------------------------------------
    1          8           0.000767647    0.001073325    0.000880758
    2          8          -0.000615524   -0.000811263    0.001270631
    3          1          -0.000718843   -0.000131667   -0.000507117
    4          1           0.000106012   -0.000733401   -0.000492136
    5          1          -0.000225208   -0.000331190   -0.000958802
    6          1           0.000685917    0.000934196   -0.000193334
 -------------------------------------------------------------------
 Cartesian Forces:  Max     0.001270631 RMS     0.000715363

 GradGradGradGradGradGradGradGradGradGradGradGradGradGradGradGradGradGrad
 Berny optimization.
 Internal  Forces:  Max     0.001088459 RMS     0.000663666
 Search for a local minimum.
 Step number   5 out of a maximum of  23
 All quantities printed in internal units (Hartrees-Bohrs-Radians)
 Update second derivatives using D2CorX and points  1  2  3  4  5

 Trust test= 1.40D+00 RLast= 4.08D-02 DXMaxT set to 4.16D-01
 The second derivative matrix:
                          R1        R2        R3        R4        R5
           R1           0.62199
           R2           0.08035   0.62200
           R3           0.01403   0.01403   0.04555
           R4           0.12231   0.12231   0.02256   0.69693
           R5           0.06863   0.06863   0.01451   0.10942   0.63047
           A1          -0.01071  -0.01071  -0.00312  -0.03108   0.00711
           A2           0.00160   0.00160   0.00032  -0.00450   0.01333
           A3           0.00163   0.00163   0.00036  -0.00446   0.01336
           A4          -0.03248  -0.03248  -0.00885  -0.05268  -0.02856
           A5          -0.03798  -0.03798  -0.04274  -0.04849  -0.04480
           A6          -0.00001  -0.00001  -0.00002  -0.00002  -0.00002
           D1          -0.00236  -0.00236   0.00012  -0.01189   0.01060
           D2           0.00238   0.00238  -0.00012   0.01192  -0.01058
                          A1        A2        A3        A4        A5
           A1           0.12996
           A2          -0.00835   0.16344
           A3          -0.00835   0.00345   0.16346
           A4          -0.01833  -0.01601  -0.01602   0.17293
           A5           0.01171  -0.00910  -0.00892   0.02343   0.07273
           A6           0.00000   0.00000   0.00000   0.00001  -0.00012
           D1          -0.00889   0.00335   0.00335  -0.01555  -0.00227
           D2           0.00888  -0.00335  -0.00335   0.01554   0.00223
                          A6        D1        D2
           A6           0.25000
           D1           0.00000   0.00572
           D2           0.00000  -0.00342   0.00572
     Eigenvalues ---    0.00230   0.01276   0.06266   0.09336   0.16000
     Eigenvalues ---    0.16036   0.17195   0.25000   0.52459   0.54165
     Eigenvalues ---    0.56415   0.959471000.00000
 RFO step:  Lambda=-1.92928893D-05.
 Quartic linear search produced a step of  0.70506.
 Iteration  1 RMS(Cart)=  0.01804684 RMS(Int)=  0.00015675
 Iteration  2 RMS(Cart)=  0.00018573 RMS(Int)=  0.00001409
 Iteration  3 RMS(Cart)=  0.00000001 RMS(Int)=  0.00001409
 Variable       Old X    -DE/DX   Delta X   Delta X   Delta X     New X
                                 (Linear)    (Quad)   (Total)
    R1        1.82816  -0.00085   0.00083  -0.00080   0.00003   1.82819
    R2        1.82816  -0.00085   0.00083  -0.00080   0.00003   1.82819
    R3        3.70352  -0.00012   0.02124   0.00487   0.02611   3.72963
    R4        1.84002  -0.00108   0.00091  -0.00088   0.00003   1.84004
    R5        1.82579  -0.00109   0.00109  -0.00134  -0.00026   1.82553
    A1        1.81628   0.00038  -0.00144   0.00262   0.00115   1.81744
    A2        1.98988  -0.00010   0.00108  -0.00013   0.00094   1.99082
    A3        1.98988  -0.00010   0.00105  -0.00014   0.00090   1.99078
    A4        1.80719   0.00081  -0.00184   0.00455   0.00270   1.80989
    A5        3.13607   0.00105   0.01880   0.01058   0.02938   3.16545
    A6        3.14145   0.00000   0.00001   0.00001   0.00002   3.14147
    D1        2.09983  -0.00004   0.00278  -0.00020   0.00256   2.10239
    D2       -2.09939   0.00004  -0.00236   0.00038  -0.00196  -2.10135
         Item               Value     Threshold  Converged?
 Maximum Force            0.001088     0.000450     NO 
 RMS     Force            0.000664     0.000300     NO 
 Maximum Displacement     0.041807     0.001800     NO 
 RMS     Displacement     0.018003     0.001200     NO 
 Predicted change in Energy=-1.453484D-05
 GradGradGradGradGradGradGradGradGradGradGradGradGradGradGradGradGradGrad

                          Input orientation:                          
 ---------------------------------------------------------------------
 Center     Atomic     Atomic              Coordinates (Angstroms)
 Number     Number      Type              X           Y           Z
 ---------------------------------------------------------------------
    1          8             0       -0.006391    0.028506    1.469414
    2          8             0        0.006913   -0.028485   -1.477163
    3          1             0        0.872366   -0.051697    1.866013
    4          1             0       -0.360252    0.847755    1.842980
    5          1             0       -0.006621   -0.022247   -0.503568
    6          1             0       -0.543482   -0.787854   -1.708755
 ---------------------------------------------------------------------
                    Distance matrix (angstroms):
                    1          2          3          4          5
     1  O    0.000000
     2  O    2.947158   0.000000
     3  H    0.967438   3.453458   0.000000
     4  H    0.967438   3.453397   1.526070   0.000000
     5  H    1.973635   0.973709   2.527529   2.527498   0.000000
     6  H    3.325006   0.966028   3.914782   3.914538   1.525401
                    6
     6  H    0.000000
 Stoichiometry    H4O2
 Framework group  C1[X(H4O2)]
 Deg. of freedom    12
 Full point group                 C1
 Largest Abelian subgroup         C1      NOp   1
 Largest concise Abelian subgroup C1      NOp   1
                         Standard orientation:                         
 ---------------------------------------------------------------------
 Center     Atomic     Atomic              Coordinates (Angstroms)
 Number     Number      Type              X           Y           Z
 ---------------------------------------------------------------------
    1          8             0       -1.394261   -0.000277    0.102086
    2          8             0        1.544608    0.000372   -0.118799
    3          1             0       -1.817769    0.763847   -0.313478
    4          1             0       -1.817668   -0.762217   -0.317569
    5          1             0        0.574928    0.000157   -0.030317
    6          1             0        1.857728   -0.002545    0.795071
 ---------------------------------------------------------------------
 Rotational constants (GHZ):    217.8900228      6.2456653      6.2435279
 Standard basis: Aug-CC-pVDZ (5D, 7F)
 There are    82 symmetry adapted basis functions of A   symmetry.
 Integral buffers will be    131072 words long.
 Raffenetti 1 integral format.
 Two-electron integral symmetry is turned on.
    82 basis functions,   130 primitive gaussians,    86 cartesian basis functions
    10 alpha electrons       10 beta electrons
       nuclear repulsion energy        36.2260169464 Hartrees.
 NAtoms=    6 NActive=    6 NUniq=    6 SFac= 7.50D-01 NAtFMM=   80 NAOKFM=F Big=F
 One-electron integrals computed using PRISM.
 NBasis=    82 RedAO= T  NBF=    82
 NBsUse=    82 1.00D-06 NBFU=    82
 Initial guess read from the read-write file:
 Initial guess orbital symmetries:
       Occupied  (A) (A) (A) (A) (A) (A) (A) (A) (A) (A)
       Virtual   (A) (A) (A) (A) (A) (A) (A) (A) (A) (A) (A) (A)
                 (A) (A) (A) (A) (A) (A) (A) (A) (A) (A) (A) (A)
                 (A) (A) (A) (A) (A) (A) (A) (A) (A) (A) (A) (A)
                 (A) (A) (A) (A) (A) (A) (A) (A) (A) (A) (A) (A)
                 (A) (A) (A) (A) (A) (A) (A) (A) (A) (A) (A) (A)
                 (A) (A) (A) (A) (A) (A) (A) (A) (A) (A) (A) (A)
 Harris functional with IExCor=  205 diagonalized for initial guess.
 ExpMin= 2.97D-02 ExpMax= 1.17D+04 ExpMxC= 4.01D+02 IAcc=3 IRadAn=         5 AccDes= 0.00D+00
 HarFok:  IExCor= 205 AccDes= 0.00D+00 IRadAn=         5 IDoV=1
 ScaDFX=  1.000000  1.000000  1.000000  1.000000
 Requested convergence on RMS density matrix=1.00D-08 within 128 cycles.
 Requested convergence on MAX density matrix=1.00D-06.
 Requested convergence on             energy=1.00D-06.
 No special actions if energy rises.
 Keep R1 integrals in memory in canonical form, NReq=     8192662.
 SCF Done:  E(RHF) =  -152.087306297     A.U. after    9 cycles
             Convg  =    0.3437D-08             -V/T =  2.0019
             S**2   =   0.0000
 ExpMin= 2.97D-02 ExpMax= 1.17D+04 ExpMxC= 4.01D+02 IAcc=3 IRadAn=         5 AccDes= 0.00D+00
 HarFok:  IExCor= 205 AccDes= 0.00D+00 IRadAn=         5 IDoV=1
 ScaDFX=  1.000000  1.000000  1.000000  1.000000
 Range of M.O.s used for correlation:     3    82
 NBasis=    82 NAE=    10 NBE=    10 NFC=     2 NFV=     0
 NROrb=     80 NOA=     8 NOB=     8 NVA=    72 NVB=    72
 Fully direct method using O(ONN) memory.
 JobTyp=1 Pass  1:  I=   3 to  10 NPSUse=  1 ParTrn=F ParDer=F DoDerP=T.
 Spin components of T(2) and E(2):
     alpha-alpha T2 =       0.1572864207D-01 E2=     -0.5664571706D-01
     alpha-beta  T2 =       0.8812854976D-01 E2=     -0.3295362953D+00
     beta-beta   T2 =       0.1572864207D-01 E2=     -0.5664571706D-01
 ANorm=    0.1058104831D+01
 E2 =    -0.4428277294D+00 EUMP2 =    -0.15253013402628D+03
 DoAtom=TTTTTT
          Differentiating once with respect to electric field.
                with respect to dipole field.
          Differentiating once with respect to nuclear coordinates.
          Store integrals in memory, NReq=     7820127.
          There are   1 degrees of freedom in the 1st order CPHF.
     1 vectors were produced by pass  0.
 AX will form   1 AO Fock derivatives at one time.
     1 vectors were produced by pass  1.
     1 vectors were produced by pass  2.
     1 vectors were produced by pass  3.
     1 vectors were produced by pass  4.
     1 vectors were produced by pass  5.
     1 vectors were produced by pass  6.
     1 vectors were produced by pass  7.
     1 vectors were produced by pass  8.
     1 vectors were produced by pass  9.
     1 vectors were produced by pass 10.
 Inv2:  IOpt= 1 Iter= 1 AM= 2.96D-16 Conv= 1.00D-12.
 Inverted reduced A of dimension   11 with in-core refinement.
 End of Minotr Frequency-dependent properties file   721 does not exist.
 ***** Axes restored to original set *****
 -------------------------------------------------------------------
 Center     Atomic                   Forces (Hartrees/Bohr)
 Number     Number              X              Y              Z
 -------------------------------------------------------------------
    1          8           0.000659979    0.000920070    0.000610777
    2          8          -0.000555333   -0.000723634    0.001421278
    3          1          -0.000801611   -0.000020750   -0.000514774
    4          1           0.000237483   -0.000778558   -0.000495454
    5          1          -0.000150735   -0.000230688   -0.000978883
    6          1           0.000610217    0.000833560   -0.000042943
 -------------------------------------------------------------------
 Cartesian Forces:  Max     0.001421278 RMS     0.000684204

 GradGradGradGradGradGradGradGradGradGradGradGradGradGradGradGradGradGrad
 Berny optimization.
 Internal  Forces:  Max     0.001378182 RMS     0.000664215
 Search for a local minimum.
 Step number   6 out of a maximum of  23
 All quantities printed in internal units (Hartrees-Bohrs-Radians)
 Update second derivatives using D2CorX and points  1  2  3  4  5
                                                        6
 Trust test= 1.49D+00 RLast= 3.96D-02 DXMaxT set to 4.16D-01
 The second derivative matrix:
                          R1        R2        R3        R4        R5
           R1           0.61346
           R2           0.07182   0.61347
           R3           0.02331   0.02332   0.05524
           R4           0.12459   0.12460   0.04253   0.72664
           R5           0.04370   0.04371   0.01758   0.08428   0.59255
           A1           0.00371   0.00371   0.00077  -0.00952   0.02170
           A2          -0.00096  -0.00096   0.00160  -0.00721   0.00964
           A3          -0.00096  -0.00096   0.00162  -0.00723   0.00964
           A4          -0.00192  -0.00192  -0.00299  -0.00997   0.00568
           A5          -0.01688  -0.01688  -0.03903  -0.02278  -0.01673
           A6           0.00000   0.00000  -0.00002   0.00001   0.00000
           D1          -0.00824  -0.00825  -0.00202  -0.02154   0.00566
           D2           0.00827   0.00828   0.00203   0.02160  -0.00563
                          A1        A2        A3        A4        A5
           A1           0.12741
           A2          -0.00687   0.16343
           A3          -0.00687   0.00343   0.16343
           A4          -0.02627  -0.01249  -0.01248   0.15092
           A5           0.00343  -0.00474  -0.00454   0.00230   0.04458
           A6           0.00000   0.00000   0.00000   0.00000  -0.00013
           D1          -0.00866   0.00287   0.00287  -0.01387   0.00011
           D2           0.00866  -0.00287  -0.00287   0.01386  -0.00016
                          A6        D1        D2
           A6           0.25000
           D1           0.00000   0.00595
           D2           0.00000  -0.00365   0.00595
     Eigenvalues ---    0.00230   0.00986   0.06496   0.08396   0.15036
     Eigenvalues ---    0.16000   0.16183   0.25000   0.52603   0.54165
     Eigenvalues ---    0.56192   0.923061000.00000
 RFO step:  Lambda=-1.17811953D-05.
 Quartic linear search produced a step of  0.87887.
 Iteration  1 RMS(Cart)=  0.01711145 RMS(Int)=  0.00019215
 Iteration  2 RMS(Cart)=  0.00023489 RMS(Int)=  0.00001937
 Iteration  3 RMS(Cart)=  0.00000001 RMS(Int)=  0.00001937
 Variable       Old X    -DE/DX   Delta X   Delta X   Delta X     New X
                                 (Linear)    (Quad)   (Total)
    R1        1.82819  -0.00094   0.00003  -0.00085  -0.00082   1.82737
    R2        1.82819  -0.00094   0.00003  -0.00085  -0.00082   1.82737
    R3        3.72963  -0.00040   0.02295  -0.00532   0.01763   3.74726
    R4        1.84004  -0.00138   0.00002  -0.00131  -0.00129   1.83876
    R5        1.82553  -0.00099  -0.00023  -0.00094  -0.00117   1.82436
    A1        1.81744   0.00024   0.00101   0.00057   0.00154   1.81898
    A2        1.99082  -0.00013   0.00083  -0.00093  -0.00013   1.99070
    A3        1.99078  -0.00013   0.00079  -0.00094  -0.00017   1.99061
    A4        1.80989   0.00053   0.00238   0.00175   0.00413   1.81402
    A5        3.16545   0.00075   0.02582   0.00527   0.03110   3.19655
    A6        3.14147   0.00000   0.00002   0.00000   0.00002   3.14149
    D1        2.10239   0.00003   0.00225   0.00095   0.00317   2.10556
    D2       -2.10135  -0.00003  -0.00172  -0.00103  -0.00272  -2.10406
         Item               Value     Threshold  Converged?
 Maximum Force            0.001378     0.000450     NO 
 RMS     Force            0.000664     0.000300     NO 
 Maximum Displacement     0.039122     0.001800     NO 
 RMS     Displacement     0.017056     0.001200     NO 
 Predicted change in Energy=-1.127297D-05
 GradGradGradGradGradGradGradGradGradGradGradGradGradGradGradGradGradGrad

                          Input orientation:                          
 ---------------------------------------------------------------------
 Center     Atomic     Atomic              Coordinates (Angstroms)
 Number     Number      Type              X           Y           Z
 ---------------------------------------------------------------------
    1          8             0       -0.005116    0.030456    1.478989
    2          8             0        0.006819   -0.028671   -1.475403
    3          1             0        0.875768   -0.047101    1.870302
    4          1             0       -0.357092    0.852410    1.847232
    5          1             0       -0.018243   -0.038192   -0.502744
    6          1             0       -0.539603   -0.782924   -1.729457
 ---------------------------------------------------------------------
                    Distance matrix (angstroms):
                    1          2          3          4          5
     1  O    0.000000
     2  O    2.955008   0.000000
     3  H    0.967005   3.456755   0.000000
     4  H    0.967005   3.456680   1.526302   0.000000
     5  H    1.982965   0.973029   2.535879   2.535819   0.000000
     6  H    3.352818   0.965411   3.937382   3.937046   1.526849
                    6
     6  H    0.000000
 Stoichiometry    H4O2
 Framework group  C1[X(H4O2)]
 Deg. of freedom    12
 Full point group                 C1
 Largest Abelian subgroup         C1      NOp   1
 Largest concise Abelian subgroup C1      NOp   1
                         Standard orientation:                         
 ---------------------------------------------------------------------
 Center     Atomic     Atomic              Coordinates (Angstroms)
 Number     Number      Type              X           Y           Z
 ---------------------------------------------------------------------
    1          8             0       -1.399874   -0.000366    0.102550
    2          8             0        1.546759    0.000503   -0.119761
    3          1             0       -1.818874    0.764231   -0.315694
    4          1             0       -1.818743   -0.762061   -0.321087
    5          1             0        0.579846    0.000104   -0.010841
    6          1             0        1.882689   -0.003364    0.785310
 ---------------------------------------------------------------------
 Rotational constants (GHZ):    218.6627577      6.2104135      6.2076202
 Standard basis: Aug-CC-pVDZ (5D, 7F)
 There are    82 symmetry adapted basis functions of A   symmetry.
 Integral buffers will be    131072 words long.
 Raffenetti 1 integral format.
 Two-electron integral symmetry is turned on.
    82 basis functions,   130 primitive gaussians,    86 cartesian basis functions
    10 alpha electrons       10 beta electrons
       nuclear repulsion energy        36.1789659545 Hartrees.
 NAtoms=    6 NActive=    6 NUniq=    6 SFac= 7.50D-01 NAtFMM=   80 NAOKFM=F Big=F
 One-electron integrals computed using PRISM.
 NBasis=    82 RedAO= T  NBF=    82
 NBsUse=    82 1.00D-06 NBFU=    82
 Initial guess read from the read-write file:
 Initial guess orbital symmetries:
       Occupied  (A) (A) (A) (A) (A) (A) (A) (A) (A) (A)
       Virtual   (A) (A) (A) (A) (A) (A) (A) (A) (A) (A) (A) (A)
                 (A) (A) (A) (A) (A) (A) (A) (A) (A) (A) (A) (A)
                 (A) (A) (A) (A) (A) (A) (A) (A) (A) (A) (A) (A)
                 (A) (A) (A) (A) (A) (A) (A) (A) (A) (A) (A) (A)
                 (A) (A) (A) (A) (A) (A) (A) (A) (A) (A) (A) (A)
                 (A) (A) (A) (A) (A) (A) (A) (A) (A) (A) (A) (A)
 Harris functional with IExCor=  205 diagonalized for initial guess.
 ExpMin= 2.97D-02 ExpMax= 1.17D+04 ExpMxC= 4.01D+02 IAcc=3 IRadAn=         5 AccDes= 0.00D+00
[...]
     6  H    0.000000
 Sum of APT charges=   0.00000
 Electronic spatial extent (au):  <R**2>=   191.5866
 Charge=     0.0000 electrons
 Dipole moment (field-independent basis, Debye):
    X=    -2.7060    Y=    -0.0003    Z=     0.1550  Tot=     2.7105
 Quadrupole moment (field-independent basis, Debye-Ang):
   XX=   -11.1794   YY=   -11.8404   ZZ=   -12.7109
   XY=    -0.0042   XZ=     6.5412   YZ=     0.0004
 Traceless Quadrupole moment (field-independent basis, Debye-Ang):
   XX=     0.7308   YY=     0.0698   ZZ=    -0.8006
   XY=    -0.0042   XZ=     6.5412   YZ=     0.0004
 Octapole moment (field-independent basis, Debye-Ang**2):
  XXX=    -8.7125  YYY=     0.0013  ZZZ=     0.7208  XYY=    -6.3202
  XXY=    -0.0012  XXZ=     1.1783  XZZ=     1.0542  YZZ=    -0.0015
  YYZ=    -0.8400  XYZ=    -0.0046
 Hexadecapole moment (field-independent basis, Debye-Ang**3):
 XXXX=  -168.0618 YYYY=   -12.9123 ZZZZ=   -14.2806 XXXY=    -0.0176
 XXXZ=    25.6158 YYYX=    -0.0048 YYYZ=     0.0006 ZZZX=     5.1185
 ZZZY=     0.0002 XXYY=   -28.0013 XXZZ=   -29.9075 YYZZ=    -4.5936
 XXYZ=     0.0005 YYXZ=     2.6945 ZZXY=    -0.0001
 N-N= 3.644444440768D+01 E-N=-4.339347810620D+02  KE= 1.518023296487D+02
  Exact polarizability:  21.294  -0.001  18.189   0.782   0.000  17.803
 Approx polarizability:  14.239  -0.001  13.853   0.952   0.000  13.995
 Full mass-weighted force constant matrix:
 Low frequencies ---  -10.5676   -0.0008    0.0002    0.0014    1.6960    3.2393
 Low frequencies ---  126.4939  147.5078  150.9565
 Diagonal vibrational polarizability:
      262.7083248     268.7638056      45.3176297
 Harmonic frequencies (cm**-1), IR intensities (KM/Mole), Raman scattering
 activities (A**4/AMU), depolarization ratios for plane and unpolarized
 incident light, reduced masses (AMU), force constants (mDyne/A),
 and normal coordinates:
                     1                      2                      3
                     A                      A                      A
 Frequencies --   126.4806               147.5078               150.9552
 Red. masses --     1.0710                 1.3571                 1.0323
 Frc consts  --     0.0101                 0.0174                 0.0139
 IR Inten    --   117.8620               161.4943                54.4603
 Atom AN      X      Y      Z        X      Y      Z        X      Y      Z
   1   8     0.00   0.00   0.00    -0.06   0.00  -0.03     0.00  -0.04   0.00
   2   8     0.00   0.06   0.00     0.14   0.00   0.00     0.00   0.00   0.00
   3   1     0.35  -0.07  -0.38    -0.52   0.00   0.32     0.51   0.24   0.07
   4   1    -0.35  -0.07   0.38    -0.52   0.00   0.32    -0.51   0.24  -0.07
   5   1     0.00  -0.19   0.00     0.07   0.00  -0.37     0.00  -0.32   0.00
   6   1     0.00  -0.65   0.00    -0.23   0.00   0.18     0.00   0.50   0.00
                     4                      5                      6
                     A                      A                      A
 Frequencies --   183.3309               357.6128               638.7233
 Red. masses --     2.9595                 1.1039                 1.0405
 Frc consts  --     0.0586                 0.0832                 0.2501
 IR Inten    --   118.6530                53.7789                91.3110
 Atom AN      X      Y      Z        X      Y      Z        X      Y      Z
   1   8     0.29   0.00  -0.05    -0.03   0.00   0.06     0.00   0.04   0.00
   2   8    -0.21   0.00   0.02     0.04   0.00  -0.02     0.00   0.03   0.00
   3   1    -0.20   0.01   0.33     0.31   0.00  -0.21    -0.25  -0.07   0.02
   4   1    -0.20  -0.01   0.33     0.31   0.00  -0.21     0.25  -0.07  -0.02
   5   1    -0.28   0.00  -0.36    -0.07   0.00  -0.57     0.00  -0.93   0.00
   6   1    -0.57   0.00   0.19    -0.56   0.00   0.26     0.00   0.03   0.00
                     7                      8                      9
                     A                      A                      A
 Frequencies --  1624.0825              1642.5044              3704.4299
 Red. masses --     1.0832                 1.0763                 1.0528
 Frc consts  --     1.6833                 1.7108                 8.5123
 IR Inten    --    85.9916                32.3011               279.5835
 Atom AN      X      Y      Z        X      Y      Z        X      Y      Z
   1   8    -0.04   0.00  -0.05    -0.01   0.00  -0.01     0.00   0.00   0.00
   2   8     0.01   0.00  -0.02    -0.03   0.00   0.06    -0.05   0.00   0.03
   3   1     0.33   0.41   0.43     0.10   0.12   0.11     0.02  -0.05   0.03
   4   1     0.33  -0.41   0.43     0.10  -0.12   0.11     0.02   0.05   0.03
   5   1     0.03   0.00   0.20    -0.13   0.00  -0.71     0.93   0.00  -0.13
   6   1    -0.16   0.00   0.08     0.57   0.00  -0.27    -0.17   0.00  -0.29
                    10                     11                     12
                     A                      A                      A
 Frequencies --  3795.9437              3904.7504              3925.0007
 Red. masses --     1.0454                 1.0747                 1.0813
 Frc consts  --     8.8753                 9.6541                 9.8144
 IR Inten    --    10.2854               113.5632                88.2276
 Atom AN      X      Y      Z        X      Y      Z        X      Y      Z
   1   8     0.03   0.00   0.04     0.00   0.00   0.00     0.00   0.07   0.00
   2   8     0.00   0.00   0.00     0.05   0.00   0.05     0.00   0.00   0.00
   3   1    -0.24   0.58  -0.32     0.01  -0.01   0.01     0.26  -0.56   0.35
   4   1    -0.24  -0.58  -0.32     0.01   0.01   0.01    -0.26  -0.56  -0.35
   5   1     0.07   0.00  -0.01    -0.32   0.00   0.08     0.00   0.00   0.00
   6   1    -0.03   0.00  -0.05    -0.41   0.00  -0.85     0.00   0.00   0.00

 -------------------
 - Thermochemistry -
 -------------------
 Temperature   298.150 Kelvin.  Pressure   1.00000 Atm.
 Atom  1 has atomic number  8 and mass  15.99491
 Atom  2 has atomic number  8 and mass  15.99491
 Atom  3 has atomic number  1 and mass   1.00783
 Atom  4 has atomic number  1 and mass   1.00783
 Atom  5 has atomic number  1 and mass   1.00783
 Atom  6 has atomic number  1 and mass   1.00783
 Molecular mass:    36.02113 amu.
 Principal axes and moments of inertia in atomic units:
                           1         2         3
     EIGENVALUES --     8.42441 282.72918 282.77899
           X            0.99937   0.03539   0.00018
           Y            0.00002  -0.00563   0.99998
           Z           -0.03539   0.99936   0.00563
 This molecule is an asymmetric top.
 Rotational symmetry number  1.
 Rotational temperatures (Kelvin)     10.28130     0.30635     0.30630
 Rotational constants (GHZ):         214.22769     6.38329     6.38216
 Zero-point vibrational energy     120830.7 (Joules/Mol)
                                   28.87924 (Kcal/Mol)
 Warning -- explicit consideration of   5 degrees of freedom as
           vibrations may cause significant error
 Vibrational temperatures:    181.98   212.23   217.19   263.77   514.52
          (Kelvin)            918.98  2336.69  2363.19  5329.84  5461.51
                             5618.06  5647.19
 
 Zero-point correction=                           0.046022 (Hartree/Particle)
 Thermal correction to Energy=                    0.051915
 Thermal correction to Enthalpy=                  0.052859
 Thermal correction to Gibbs Free Energy=         0.019598
 Sum of electronic and zero-point Energies=           -152.484185
 Sum of electronic and thermal Energies=              -152.478292
 Sum of electronic and thermal Enthalpies=            -152.477348
 Sum of electronic and thermal Free Energies=         -152.510608
 
                     E (Thermal)             CV                S
                      KCal/Mol        Cal/Mol-Kelvin    Cal/Mol-Kelvin
 Total                   32.577             16.162             70.003
 Electronic               0.000              0.000              0.000
 Translational            0.889              2.981             36.674
 Rotational               0.889              2.981             21.137
 Vibrational             30.800             10.200             12.191
 Vibration  1             0.611              1.927              2.999
 Vibration  2             0.617              1.905              2.704
 Vibration  3             0.618              1.902              2.660
 Vibration  4             0.631              1.863              2.294
 Vibration  5             0.733              1.560              1.132
                       Q            Log10(Q)             Ln(Q)
 Total Bot       0.966803D-09         -9.014662        -20.757027
 Total V=0       0.142542D+13         12.153943         27.985488
 Vib (Bot)       0.122468D-19        -19.911978        -45.849024
 Vib (Bot)  1    0.161323D+01          0.207698          0.478241
 Vib (Bot)  2    0.137561D+01          0.138496          0.318900
 Vib (Bot)  3    0.134287D+01          0.128033          0.294808
 Vib (Bot)  4    0.109429D+01          0.039134          0.090110
 Vib (Bot)  5    0.513352D+00         -0.289585         -0.666793
 Vib (V=0)       0.180562D+02          1.256627          2.893491
 Vib (V=0)  1    0.218894D+01          0.340234          0.783418
 Vib (V=0)  2    0.196366D+01          0.293067          0.674812
 Vib (V=0)  3    0.193293D+01          0.286217          0.659038
 Vib (V=0)  4    0.170311D+01          0.231243          0.532458
 Vib (V=0)  5    0.121661D+01          0.085152          0.196069
 Electronic      0.100000D+01          0.000000          0.000000
 Translational   0.849750D+07          6.929291         15.955283
 Rotational      0.929020D+04          3.968025          9.136715
 ***** Axes restored to original set *****
 -------------------------------------------------------------------
 Center     Atomic                   Forces (Hartrees/Bohr)
 Number     Number              X              Y              Z
 -------------------------------------------------------------------
    1          8          -0.000007557   -0.000010497   -0.000017779
    2          8           0.000020972    0.000029376    0.000018635
    3          1          -0.000003463    0.000008924    0.000002742
    4          1           0.000009608   -0.000000548    0.000003148
    5          1          -0.000003455   -0.000005180   -0.000012574
    6          1          -0.000016104   -0.000022075    0.000005827
 -------------------------------------------------------------------
 Cartesian Forces:  Max     0.000029376 RMS     0.000013566

 GradGradGradGradGradGradGradGradGradGradGradGradGradGradGradGradGradGrad
 Berny optimization.
 Internal  Forces:  Max     0.000027090 RMS     0.000013186
 Search for a local minimum.
 Step number   1 out of a maximum of   2
 All quantities printed in internal units (Hartrees-Bohrs-Radians)
 Second derivative matrix not updated -- analytic derivatives used.
 The second derivative matrix:
                          R1        R2        R3        R4        R5
           R1           0.53563
           R2          -0.00936   0.53563
           R3           0.00049   0.00049   0.01014
           R4          -0.00105  -0.00105   0.01092   0.51075
           R5          -0.00003  -0.00003  -0.00034  -0.00895   0.54167
           A1           0.01876   0.01876   0.00036   0.00084  -0.00011
           A2          -0.00186  -0.00447   0.00016   0.00197  -0.00007
           A3          -0.00447  -0.00186   0.00016   0.00197  -0.00007
           A4          -0.00017  -0.00017   0.00298   0.02668   0.03065
           A5           0.00253   0.00253  -0.00047  -0.00192  -0.00090
           A6           0.00018  -0.00018   0.00000   0.00000   0.00000
           D1          -0.00943  -0.00939  -0.00032   0.00094  -0.00003
           D2           0.00939   0.00943   0.00032  -0.00094   0.00003
                          A1        A2        A3        A4        A5
           A1           0.06551
           A2          -0.01758   0.01182
           A3          -0.01758   0.00295   0.01182
           A4          -0.00017  -0.00023  -0.00023   0.14840
           A5           0.00602   0.00123   0.00122  -0.00571   0.00985
           A6           0.00000   0.00260  -0.00260   0.00000   0.00000
           D1          -0.02956   0.00711   0.00643  -0.00019  -0.00337
           D2           0.02956  -0.00643  -0.00711   0.00019   0.00337
                          A6        D1        D2
           A6           0.00311
           D1           0.00025   0.01426
           D2           0.00025  -0.01356   0.01426
     Eigenvalues ---    0.00064   0.00132   0.00345   0.00990   0.01072
     Eigenvalues ---    0.01198   0.09963   0.14425   0.51148   0.52900
     Eigenvalues ---    0.54501   0.545501000.00000
 Angle between quadratic step and forces=  69.13 degrees.
 Linear search not attempted -- first point.
 Iteration  1 RMS(Cart)=  0.00071642 RMS(Int)=  0.00000037
 Iteration  2 RMS(Cart)=  0.00000043 RMS(Int)=  0.00000009
 Variable       Old X    -DE/DX   Delta X   Delta X   Delta X     New X
                                 (Linear)    (Quad)   (Total)
    R1        1.82664   0.00000   0.00000   0.00000   0.00000   1.82664
    R2        1.82664   0.00000   0.00000   0.00000   0.00000   1.82664
    R3        3.68840  -0.00001   0.00000  -0.00118  -0.00118   3.68723
    R4        1.83839  -0.00002   0.00000  -0.00001  -0.00001   1.83838
    R5        1.82323   0.00002   0.00000   0.00005   0.00005   1.82328
    A1        1.81854  -0.00001   0.00000  -0.00010  -0.00010   1.81844
    A2        1.93318   0.00000   0.00000   0.00034   0.00034   1.93352
    A3        1.93312   0.00000   0.00000   0.00040   0.00040   1.93352
    A4        1.81999  -0.00003   0.00000  -0.00021  -0.00021   1.81978
    A5        3.29394  -0.00001   0.00000  -0.00114  -0.00114   3.29280
    A6        3.14152   0.00000   0.00000   0.00007   0.00007   3.14159
    D1        2.15275   0.00001   0.00000  -0.00036  -0.00036   2.15238
    D2       -2.15251  -0.00001   0.00000   0.00013   0.00013  -2.15237
         Item               Value     Threshold  Converged?
 Maximum Force            0.000027     0.000450     YES
 RMS     Force            0.000013     0.000300     YES
 Maximum Displacement     0.001517     0.001800     YES
 RMS     Displacement     0.000717     0.001200     YES
 Predicted change in Energy=-1.506742D-08
 Optimization completed.
    -- Stationary point found.
                           ----------------------------
                           !   Optimized Parameters   !
                           ! (Angstroms and Degrees)  !
 --------------------------                            --------------------------
 ! Name  Definition              Value          Derivative Info.                !
 --------------------------------------------------------------------------------
 ! R1    R(1,3)                  0.9666         -DE/DX =    0.0                 !
 ! R2    R(1,4)                  0.9666         -DE/DX =    0.0                 !
 ! R3    R(1,5)                  1.9518         -DE/DX =    0.0                 !
 ! R4    R(2,5)                  0.9728         -DE/DX =    0.0                 !
 ! R5    R(2,6)                  0.9648         -DE/DX =    0.0                 !
 ! A1    A(3,1,4)              104.1947         -DE/DX =    0.0                 !
 ! A2    A(3,1,5)              110.7631         -DE/DX =    0.0                 !
 ! A3    A(4,1,5)              110.7598         -DE/DX =    0.0                 !
 ! A4    A(5,2,6)              104.2778         -DE/DX =    0.0                 !
 ! A5    L(1,5,2,6,-1)         188.7286         -DE/DX =    0.0                 !
 ! A6    L(1,5,2,6,-2)         179.9961         -DE/DX =    0.0                 !
 ! D1    D(3,1,2,6)            123.3433         -DE/DX =    0.0                 !
 ! D2    D(4,1,2,6)           -123.3295         -DE/DX =    0.0                 !
 --------------------------------------------------------------------------------
 GradGradGradGradGradGradGradGradGradGradGradGradGradGradGradGradGradGrad

 1\1\GINC-POLARIS-C00\Freq\RMP2-FC\Aug-CC-pVDZ\H4O2\G060005\16-Apr-2007
 \0\\#N Geom=AllCheck Guess=Read SCRF=Check GenChk RMP2(FC)/Aug-CC-pVDZ
  Freq\\Title Card Required\\0,1\O,-0.0210296049,0.009133744,1.49466287
 53\O,0.0139235108,-0.0172956839,-1.4221328828\H,0.8869321541,-0.032325
 6244,1.8236457929\H,-0.3450831674,0.8668577801,1.8006730018\H,-0.05589
 72741,-0.0883216124,-0.4544101745\H,-0.5163136185,-0.7520706033,-1.753
 5196128\\Version=AM64L-G03RevD.01\State=1-A\HF=-152.087435\MP2=-152.53
 02069\RMSD=6.995e-10\RMSF=1.357e-05\ZeroPoint=0.046022\Thermal=0.05191
 48\Dipole=0.0034257,0.0309392,1.0254045\DipoleDeriv=-0.4546998,0.03382
 89,0.0658074,0.0334874,-0.4301452,0.083449,0.0524035,0.0650812,-0.7418
 387,-0.5588433,0.1327938,-0.0367842,0.1323576,-0.47648,-0.0519208,-0.0
 539508,-0.0754395,-0.7164304,0.2245406,-0.0365415,-0.0503178,-0.028800
 4,0.2823418,-0.0448698,-0.0346584,-0.0417767,0.2922859,0.2973108,-0.00
 53272,-0.0271909,-0.0127125,0.2090537,-0.0604582,-0.0288863,-0.0444155
 ,0.2928062,0.2425938,-0.029274,0.0452856,-0.0289594,0.2269288,0.070375
 5,0.0576553,0.0873233,0.5920384,0.2490978,-0.09548,0.0032,-0.0953727,0
 .1883009,0.0034244,0.0074368,0.0092272,0.2811386\Polar=18.0920615,-0.1
 180151,18.049614,0.585113,0.8768159,21.144015\PG=C01 [X(H4O2)]\NImag=0
 \\0.55366845,-0.17217586,0.44985835,0.12644817,0.15958007,0.14655473,0
 .00364113,-0.00057854,-0.00201481,0.18178050,-0.00055038,0.00319318,-0
 .00307948,0.24560909,0.34231629,-0.00090903,-0.00156412,-0.00849937,0.
 05623351,0.09200101,0.59197587,-0.45964159,0.05073551,-0.15250747,-0.0
 0027202,0.00026236,0.00132201,0.47568914,-0.00262676,-0.03613917,-0.02
 008183,0.00029709,-0.00041599,-0.00051633,-0.04031599,0.04104062,-0.17
 705988,0.00053267,-0.07198578,0.00172824,-0.00010351,-0.00049932,0.163
 84870,0.00541137,0.06899158,-0.09139892,0.12033417,0.02473647,-0.00052
 821,0.00014826,-0.00089801,-0.01581034,0.04313231,0.01558218,0.1069511
 0,0.17373772,-0.41180943,-0.14114277,0.00013071,-0.00007488,0.00109732
 ,-0.01012604,-0.00509645,-0.00611847,-0.16351200,0.41728771,0.05090746
 ,-0.15953927,-0.06455806,-0.00062838,0.00161098,-0.00058409,-0.0108572
 3,0.01417131,0.00309150,-0.04094940,0.14756740,0.06148249,-0.00621571,
 0.00161054,0.00278796,-0.02313866,-0.02176571,0.05302326,0.00001803,-0
 .00029322,-0.00413727,0.00063751,-0.00024745,0.00157493,0.02932008,0.0
 0154334,-0.00512239,0.00400973,-0.02267085,-0.03578185,0.06048398,-0.0
 0053381,0.00051954,0.00031702,0.00005007,-0.00026983,-0.00383299,0.021
 64887,0.04216180,0.00015423,0.00040064,0.00010245,0.01744019,0.0117405
 0,-0.48387880,-0.00188239,0.00101829,0.00032497,0.00155035,-0.00147779
 ,0.00049465,-0.02476830,-0.02161611,0.49707436,-0.00005336,0.00007418,
 0.00054968,-0.16148273,-0.22370362,-0.10877174,0.00001679,-0.00019343,
 0.00003803,0.00014885,0.00001707,-0.00004739,-0.00062125,-0.00003762,0
 .00750593,0.16199171,0.00007195,0.00001946,0.00071429,-0.22278750,-0.3
 0923675,-0.15150186,-0.00002203,0.00009143,-0.00003908,-0.00015280,-0.
 00003712,0.00002257,-0.00095304,-0.00150727,0.00993447,0.22384342,0.31
 067025,0.00045905,0.00059000,-0.00161397,-0.07275875,-0.10216950,-0.09
 851429,0.00007638,-0.00000282,0.00007706,-0.00002160,0.00007432,0.0000
 7351,-0.02848057,-0.03936162,-0.01411763,0.10072548,0.14086962,0.11409
 533\\0.00000756,0.00001050,0.00001778,-0.00002097,-0.00002938,-0.00001
 863,0.00000346,-0.00000892,-0.00000274,-0.00000961,0.00000055,-0.00000
 315,0.00000346,0.00000518,0.00001257,0.00001610,0.00002208,-0.00000583
 \\\@


 MY DESCRIPTION OF EXPERIENCE IS NOT WHAT HAPPENS
 TO A MAN.  EXPERIENCE IS WHAT A MAN DOES WITH WHAT
 HAPPENS TO HIM.
                         - CHUCK KNOX, SEATTLE SEAHAWKS, 1985
 Job cpu time:  0 days  0 hours  4 minutes 18.8 seconds.
 File lengths (MBytes):  RWF=    277 Int=      0 D2E=      0 Chk=     10 Scr=      1
 Normal termination of Gaussian 03 at Mon Apr 16 21:50:04 2007.
