 Entering Gaussian System, Link 0=g03
 Initial command:
 /usr/local/g03-em64t/g03/l1.exe /usr/scratch/NQCaaa-bbb3/Gau-19721.inp -scrdir=/usr/scratch/NQCaaa-bbb3/
 Entering Link 1 = /usr/local/g03-em64t/g03/l1.exe PID=     19722.
  
 Copyright (c) 1988,1990,1992,1993,1995,1998,2003,2004, Gaussian, Inc.
                  All Rights Reserved.
  
 This is the Gaussian(R) 03 program.  It is based on the
 the Gaussian(R) 98 system (copyright 1998, Gaussian, Inc.),
 the Gaussian(R) 94 system (copyright 1995, Gaussian, Inc.),
 the Gaussian 92(TM) system (copyright 1992, Gaussian, Inc.),
 the Gaussian 90(TM) system (copyright 1990, Gaussian, Inc.),
 the Gaussian 88(TM) system (copyright 1988, Gaussian, Inc.),
 the Gaussian 86(TM) system (copyright 1986, Carnegie Mellon
 University), and the Gaussian 82(TM) system (copyright 1983,
 Carnegie Mellon University). Gaussian is a federally registered
 trademark of Gaussian, Inc.
  
 This software contains proprietary and confidential information,
 including trade secrets, belonging to Gaussian, Inc.
  
 This software is provided under written license and may be
 used, copied, transmitted, or stored only in accord with that
 written license.
  
 The following legend is applicable only to US Government
 contracts under FAR:
  
                    RESTRICTED RIGHTS LEGEND
  
 Use, reproduction and disclosure by the US Government is
 subject to restrictions as set forth in subparagraphs (a)
 and (c) of the Commercial Computer Software - Restricted
 Rights clause in FAR 52.227-19.
  
 Gaussian, Inc.
 340 Quinnipiac St., Bldg. 40, Wallingford CT 06492
  
  
 ---------------------------------------------------------------
 Warning -- This program may not be used in any manner that
 competes with the business of Gaussian, Inc. or will provide
 assistance to any competitor of Gaussian, Inc.  The licensee
 of this program is prohibited from giving any competitor of
 Gaussian, Inc. access to this program.  By using this program,
 the user acknowledges that Gaussian, Inc. is engaged in the
 business of creating and licensing software in the field of
 computational chemistry and represents and warrants to the
 licensee that it is not a competitor of Gaussian, Inc. and that
 it will not use this program in any manner prohibited above.
 ---------------------------------------------------------------
  

 Cite this work as:
 Gaussian 03, Revision D.01,
 M. J. Frisch, G. W. Trucks, H. B. Schlegel, G. E. Scuseria, 
 M. A. Robb, J. R. Cheeseman, J. A. Montgomery, Jr., T. Vreven, 
 K. N. Kudin, J. C. Burant, J. M. Millam, S. S. Iyengar, J. Tomasi, 
 V. Barone, B. Mennucci, M. Cossi, G. Scalmani, N. Rega, 
 G. A. Petersson, H. Nakatsuji, M. Hada, M. Ehara, K. Toyota, 
 R. Fukuda, J. Hasegawa, M. Ishida, T. Nakajima, Y. Honda, O. Kitao, 
 H. Nakai, M. Klene, X. Li, J. E. Knox, H. P. Hratchian, J. B. Cross, 
 V. Bakken, C. Adamo, J. Jaramillo, R. Gomperts, R. E. Stratmann, 
 O. Yazyev, A. J. Austin, R. Cammi, C. Pomelli, J. W. Ochterski, 
 P. Y. Ayala, K. Morokuma, G. A. Voth, P. Salvador, J. J. Dannenberg, 
 V. G. Zakrzewski, S. Dapprich, A. D. Daniels, M. C. Strain, 
 O. Farkas, D. K. Malick, A. D. Rabuck, K. Raghavachari, 
 J. B. Foresman, J. V. Ortiz, Q. Cui, A. G. Baboul, S. Clifford, 
 J. Cioslowski, B. B. Stefanov, G. Liu, A. Liashenko, P. Piskorz, 
 I. Komaromi, R. L. Martin, D. J. Fox, T. Keith, M. A. Al-Laham, 
 C. Y. Peng, A. Nanayakkara, M. Challacombe, P. M. W. Gill, 
 B. Johnson, W. Chen, M. W. Wong, C. Gonzalez, and J. A. Pople, 
 Gaussian, Inc., Wallingford CT, 2004.
 
 ******************************************
 Gaussian 03:  AM64L-G03RevD.01 13-Oct-2005
                13-Apr-2005 
 ******************************************
 %chk=W3.chk
 %mem=64MW
 %nproc=2
 Will use up to    2 processors via shared memory.
 --------------------------------------------
 # opt freq MP2/aug-cc-pvDZ geom=connectivity
 --------------------------------------------
 1/18=20,38=1,57=2/1,3;
 2/9=110,17=6,18=5,40=1/2;
 3/5=16,7=10,11=9,16=1,25=1,30=1/1,2,3;
 4//1;
 5/5=2,38=5/2;
 8/6=4,10=1/1;
 9/15=2,16=-3/6;
 10/5=1/2;
 6/7=2,8=2,9=2,10=2/1;
 7/12=2/1,2,3,16;
 1/18=20/3(3);
 2/9=110/2;
 6/7=2,8=2,9=2,10=2/1;
 99//99;
 2/9=110/2;
 3/5=16,7=10,11=9,16=1,25=1,30=1/1,2,3;
 4/5=5,16=3/1;
 5/5=2,38=5/2;
 8/6=4,10=1/1;
 9/15=2,16=-3/6;
 10/5=1/2;
 7/12=2/1,2,3,16;
 1/18=20/3(-8);
 2/9=110/2;
 6/7=2,8=2,9=2,10=2/1;
 99//99;
 -------------------
 Title Card Required
 -------------------
 Symbolic Z-matrix:
 Charge =  0 Multiplicity = 1
 O
 H                    1    B1
 H                    1    B2       2    A1
 O                    1    B3       3    A2       2    D1       0
 H                    4    B4       1    A3       3    D2       0
 H                    4    B5       1    A4       3    D3       0
 O                    1    B6       4    A5       5    D4       0
 H                    7    B7       1    A6       4    D5       0
 H                    7    B8       1    A7       4    D6       0
       Variables:
  B1                    0.98365                  
  B2                    0.9681                   
  B3                    2.7764                   
  B4                    0.96803                  
  B5                    0.98479                  
  B6                    2.76685                  
  B7                    0.9847                   
  B8                    0.96843                  
  A1                  106.77446                  
  A2                  121.33182                  
  A3                  134.739                    
  A4                   79.70372                  
  A5                   59.89305                  
  A6                   19.73108                  
  A7                  116.4862                   
  D1                  -17.6398                   
  D2                  -15.22449                  
  D3                 -118.76413                  
  D4                  103.31427                  
  D5                  179.3502                   
  D6                  116.08218                  
 

 GradGradGradGradGradGradGradGradGradGradGradGradGradGradGradGradGradGrad
 Berny optimization.
 Initialization pass.
                           ----------------------------
                           !    Initial Parameters    !
                           ! (Angstroms and Degrees)  !
 --------------------------                            --------------------------
 ! Name  Definition              Value          Derivative Info.                !
 --------------------------------------------------------------------------------
 ! R1    R(1,2)                  0.9836         estimate D2E/DX2                !
 ! R2    R(1,3)                  0.9681         estimate D2E/DX2                !
 ! R3    R(1,8)                  1.8698         estimate D2E/DX2                !
 ! R4    R(2,4)                  1.8972         estimate D2E/DX2                !
 ! R5    R(4,5)                  0.968          estimate D2E/DX2                !
 ! R6    R(4,6)                  0.9848         estimate D2E/DX2                !
 ! R7    R(6,7)                  1.8708         estimate D2E/DX2                !
 ! R8    R(7,8)                  0.9847         estimate D2E/DX2                !
 ! R9    R(7,9)                  0.9684         estimate D2E/DX2                !
 ! A1    A(2,1,3)              106.7745         estimate D2E/DX2                !
 ! A2    A(2,1,8)               91.5136         estimate D2E/DX2                !
 ! A3    A(3,1,8)              124.1952         estimate D2E/DX2                !
 ! A4    A(1,2,4)              147.3195         estimate D2E/DX2                !
 ! A5    A(2,4,5)              129.6383         estimate D2E/DX2                !
 ! A6    A(2,4,6)               90.5879         estimate D2E/DX2                !
 ! A7    A(5,4,6)              106.8239         estimate D2E/DX2                !
 ! A8    A(4,6,7)              149.8943         estimate D2E/DX2                !
 ! A9    A(6,7,8)               90.2366         estimate D2E/DX2                !
 ! A10   A(6,7,9)              121.2075         estimate D2E/DX2                !
 ! A11   A(8,7,9)              106.4916         estimate D2E/DX2                !
 ! A12   A(1,8,7)              150.0273         estimate D2E/DX2                !
 ! D1    D(3,1,2,4)           -135.4501         estimate D2E/DX2                !
 ! D2    D(8,1,2,4)             -8.926          estimate D2E/DX2                !
 ! D3    D(2,1,8,7)              2.8921         estimate D2E/DX2                !
 ! D4    D(3,1,8,7)            114.4228         estimate D2E/DX2                !
 ! D5    D(1,2,4,5)            121.842          estimate D2E/DX2                !
 ! D6    D(1,2,4,6)              9.2379         estimate D2E/DX2                !
 ! D7    D(2,4,6,7)             -1.2138         estimate D2E/DX2                !
 ! D8    D(5,4,6,7)           -133.2501         estimate D2E/DX2                !
 ! D9    D(4,6,7,8)             -0.8633         estimate D2E/DX2                !
 ! D10   D(4,6,7,9)           -110.3998         estimate D2E/DX2                !
 ! D11   D(6,7,8,1)              0.7293         estimate D2E/DX2                !
 ! D12   D(9,7,8,1)            123.5217         estimate D2E/DX2                !
 --------------------------------------------------------------------------------
 Trust Radius=3.00D-01 FncErr=1.00D-07 GrdErr=1.00D-07
 Number of steps in this run=  43 maximum allowed number of steps= 100.
 GradGradGradGradGradGradGradGradGradGradGradGradGradGradGradGradGradGrad

                          Input orientation:                          
 ---------------------------------------------------------------------
 Center     Atomic     Atomic              Coordinates (Angstroms)
 Number     Number      Type              X           Y           Z
 ---------------------------------------------------------------------
    1          8             0        0.000000    0.000000    0.000000
    2          1             0        0.000000    0.000000    0.983647
    3          1             0        0.926904    0.000000   -0.279398
    4          8             0       -0.730027   -0.718645    2.580502
    5          1             0       -0.287483   -1.171637    3.312643
    6          1             0       -1.206023   -1.409050    2.064189
    7          8             0       -1.647589   -2.182923    0.419227
    8          1             0       -1.112415   -1.502019   -0.049389
    9          1             0       -2.545141   -2.121770    0.060730
 ---------------------------------------------------------------------
                    Distance matrix (angstroms):
                    1          2          3          4          5
     1  O    0.000000
     2  H    0.983647   0.000000
     3  H    0.968099   1.566663   0.000000
     4  O    2.776397   1.897192   3.382440   0.000000
     5  H    3.525476   2.622899   3.968655   0.968027   0.000000
     6  H    2.775030   2.146506   3.468026   0.984790   1.568030
     7  O    2.766850   2.792539   3.446919   2.767154   3.353273
     8  H    1.869751   2.135578   2.543185   2.770600   3.477488
     9  H    3.314112   3.439684   4.083221   3.407734   4.071204
                    6          7          8          9
     6  H    0.000000
     7  O    1.870764   0.000000
     8  H    2.117692   0.984705   0.000000
     9  H    2.512977   0.968431   1.564903   0.000000
 Stoichiometry    H6O3
 Framework group  C1[X(H6O3)]
 Deg. of freedom    21
 Full point group                 C1
 Largest Abelian subgroup         C1      NOp   1
 Largest concise Abelian subgroup C1      NOp   1
                         Standard orientation:                         
 ---------------------------------------------------------------------
 Center     Atomic     Atomic              Coordinates (Angstroms)
 Number     Number      Type              X           Y           Z
 ---------------------------------------------------------------------
    1          8             0       -1.438314   -0.701141   -0.086968
    2          1             0       -0.549329   -1.121199   -0.058399
    3          1             0       -1.968838   -1.122616    0.604493
    4          8             0        1.332263   -0.880741   -0.092021
    5          1             0        1.999538   -1.138655    0.560130
    6          1             0        1.219229    0.094408   -0.013798
    7          8             0        0.101323    1.589111    0.112334
    8          1             0       -0.690637    1.006604    0.056395
    9          1             0        0.027861    2.223622   -0.615579
 ---------------------------------------------------------------------
 Rotational constants (GHZ):      7.0148184      6.8949940      3.5471169
 Standard basis: Aug-CC-pVDZ (5D, 7F)
 There are   123 symmetry adapted basis functions of A   symmetry.
 Integral buffers will be    131072 words long.
 Raffenetti 1 integral format.
 Two-electron integral symmetry is turned on.
   123 basis functions,   195 primitive gaussians,   129 cartesian basis functions
    15 alpha electrons       15 beta electrons
       nuclear repulsion energy        84.7173882718 Hartrees.
 NAtoms=    9 NActive=    9 NUniq=    9 SFac= 7.50D-01 NAtFMM=   80 NAOKFM=F Big=F
 One-electron integrals computed using PRISM.
 NBasis=   123 RedAO= T  NBF=   123
 NBsUse=   123 1.00D-06 NBFU=   123
 Harris functional with IExCor=  205 diagonalized for initial guess.
 ExpMin= 2.97D-02 ExpMax= 1.17D+04 ExpMxC= 4.01D+02 IAcc=3 IRadAn=         5 AccDes= 0.00D+00
 HarFok:  IExCor= 205 AccDes= 0.00D+00 IRadAn=         5 IDoV=1
 ScaDFX=  1.000000  1.000000  1.000000  1.000000
 Initial guess orbital symmetries:
       Occupied  (A) (A) (A) (A) (A) (A) (A) (A) (A) (A) (A) (A)
                 (A) (A) (A)
       Virtual   (A) (A) (A) (A) (A) (A) (A) (A) (A) (A) (A) (A)
                 (A) (A) (A) (A) (A) (A) (A) (A) (A) (A) (A) (A)
                 (A) (A) (A) (A) (A) (A) (A) (A) (A) (A) (A) (A)
                 (A) (A) (A) (A) (A) (A) (A) (A) (A) (A) (A) (A)
                 (A) (A) (A) (A) (A) (A) (A) (A) (A) (A) (A) (A)
                 (A) (A) (A) (A) (A) (A) (A) (A) (A) (A) (A) (A)
                 (A) (A) (A) (A) (A) (A) (A) (A) (A) (A) (A) (A)
                 (A) (A) (A) (A) (A) (A) (A) (A) (A) (A) (A) (A)
                 (A) (A) (A) (A) (A) (A) (A) (A) (A) (A) (A) (A)
 The electronic state of the initial guess is 1-A.
 Requested convergence on RMS density matrix=1.00D-08 within 128 cycles.
 Requested convergence on MAX density matrix=1.00D-06.
 Requested convergence on             energy=1.00D-06.
 No special actions if energy rises.
 Keep R1 integrals in memory in canonical form, NReq=    37153658.
 SCF Done:  E(RHF) =  -228.137431392     A.U. after   11 cycles
             Convg  =    0.4183D-08             -V/T =  2.0020
             S**2   =   0.0000
 ExpMin= 2.97D-02 ExpMax= 1.17D+04 ExpMxC= 4.01D+02 IAcc=3 IRadAn=         5 AccDes= 0.00D+00
 HarFok:  IExCor= 205 AccDes= 0.00D+00 IRadAn=         5 IDoV=1
 ScaDFX=  1.000000  1.000000  1.000000  1.000000
 Range of M.O.s used for correlation:     4   123
 NBasis=   123 NAE=    15 NBE=    15 NFC=     3 NFV=     0
 NROrb=    120 NOA=    12 NOB=    12 NVA=   108 NVB=   108
 Fully direct method using O(ONN) memory.
 JobTyp=1 Pass  1:  I=   4 to  15 NPSUse=  2 ParTrn=T ParDer=T DoDerP=T.
 Spin components of T(2) and E(2):
     alpha-alpha T2 =       0.2407320538D-01 E2=     -0.8664660798D-01
     alpha-beta  T2 =       0.1327775766D+00 E2=     -0.4976288281D+00
     beta-beta   T2 =       0.2407320538D-01 E2=     -0.8664660798D-01
 ANorm=    0.1086703266D+01
 E2 =    -0.6709220441D+00 EUMP2 =    -0.22880835343651D+03
 DoAtom=TTTTTTTTT
          Differentiating once with respect to electric field.
                with respect to dipole field.
          Differentiating once with respect to nuclear coordinates.
          Store integrals in memory, NReq=    35979340.
          There are   1 degrees of freedom in the 1st order CPHF.
     1 vectors were produced by pass  0.
 AX will form   1 AO Fock derivatives at one time.
     1 vectors were produced by pass  1.
     1 vectors were produced by pass  2.
     1 vectors were produced by pass  3.
     1 vectors were produced by pass  4.
     1 vectors were produced by pass  5.
     1 vectors were produced by pass  6.
     1 vectors were produced by pass  7.
     1 vectors were produced by pass  8.
     1 vectors were produced by pass  9.
     1 vectors were produced by pass 10.
     1 vectors were produced by pass 11.
 Inv2:  IOpt= 1 Iter= 1 AM= 2.66D-16 Conv= 1.00D-12.
 Inverted reduced A of dimension   12 with in-core refinement.
 End of Minotr Frequency-dependent properties file   721 does not exist.

 **********************************************************************

            Population analysis using the SCF density.

 **********************************************************************

 Orbital symmetries:
       Occupied  (A) (A) (A) (A) (A) (A) (A) (A) (A) (A) (A) (A)
                 (A) (A) (A)
       Virtual   (A) (A) (A) (A) (A) (A) (A) (A) (A) (A) (A) (A)
                 (A) (A) (A) (A) (A) (A) (A) (A) (A) (A) (A) (A)
                 (A) (A) (A) (A) (A) (A) (A) (A) (A) (A) (A) (A)
                 (A) (A) (A) (A) (A) (A) (A) (A) (A) (A) (A) (A)
                 (A) (A) (A) (A) (A) (A) (A) (A) (A) (A) (A) (A)
                 (A) (A) (A) (A) (A) (A) (A) (A) (A) (A) (A) (A)
                 (A) (A) (A) (A) (A) (A) (A) (A) (A) (A) (A) (A)
                 (A) (A) (A) (A) (A) (A) (A) (A) (A) (A) (A) (A)
                 (A) (A) (A) (A) (A) (A) (A) (A) (A) (A) (A) (A)
 The electronic state is 1-A.
 Alpha  occ. eigenvalues --  -20.57360 -20.57163 -20.57074  -1.35984  -1.34013
 Alpha  occ. eigenvalues --   -1.33816  -0.73904  -0.70721  -0.70490  -0.59697
 Alpha  occ. eigenvalues --   -0.59117  -0.55858  -0.51306  -0.50319  -0.49834
 Alpha virt. eigenvalues --    0.03298   0.05114   0.05229   0.07791   0.08438
 Alpha virt. eigenvalues --    0.09926   0.16531   0.18422   0.19617   0.21508
 Alpha virt. eigenvalues --    0.21594   0.22547   0.24013   0.26346   0.26982
 Alpha virt. eigenvalues --    0.28152   0.29394   0.30727   0.31681   0.33767
 Alpha virt. eigenvalues --    0.35004   0.38910   0.41870   0.42467   0.45863
 Alpha virt. eigenvalues --    0.46094   0.47991   0.49764   0.51653   0.54175
 Alpha virt. eigenvalues --    0.54715   0.57132   0.59786   0.61418   0.62005
 Alpha virt. eigenvalues --    0.64312   0.66679   0.67340   0.69472   0.74890
 Alpha virt. eigenvalues --    0.78944   0.78958   0.88296   0.91598   0.93594
 Alpha virt. eigenvalues --    0.99190   1.02547   1.04139   1.13453   1.14547
 Alpha virt. eigenvalues --    1.19543   1.21445   1.22116   1.22971   1.24896
 Alpha virt. eigenvalues --    1.32089   1.32614   1.39691   1.42060   1.42894
 Alpha virt. eigenvalues --    1.48442   1.53440   1.55799   1.62081   1.63028
 Alpha virt. eigenvalues --    1.68809   1.83614   1.84827   1.85265   2.01931
 Alpha virt. eigenvalues --    2.02674   2.04802   2.15397   2.16134   2.18244
 Alpha virt. eigenvalues --    2.23040   2.28850   2.30347   2.40895   2.43611
 Alpha virt. eigenvalues --    2.49970   2.53040   2.55038   2.60695   2.71940
 Alpha virt. eigenvalues --    2.76061   2.78104   2.81382   2.82979   2.93061
 Alpha virt. eigenvalues --    3.05505   3.09437   3.16209   3.67495   3.71868
 Alpha virt. eigenvalues --    3.74291   3.74404   3.76555   3.77736   3.85386
 Alpha virt. eigenvalues --    3.88077   3.88611   4.10585   4.14337   4.15133
 Alpha virt. eigenvalues --    4.32888   4.37929   4.39022
          Condensed to atoms (all electrons):
              1          2          3          4          5          6
     1  O    7.866353   0.313389   0.361514  -0.025747   0.001752  -0.006760
     2  H    0.313389   0.463705  -0.053395  -0.003269   0.000596   0.000372
     3  H    0.361514  -0.053395   0.510565  -0.004532   0.000278  -0.002287
     4  O   -0.025747  -0.003269  -0.004532   7.863310   0.355997   0.324073
     5  H    0.001752   0.000596   0.000278   0.355997   0.511178  -0.055052
     6  H   -0.006760   0.000372  -0.002287   0.324073  -0.055052   0.465431
     7  O   -0.035842  -0.008528   0.001905  -0.034379  -0.000991  -0.004557
     8  H   -0.003375  -0.000720  -0.000982  -0.010659  -0.000957   0.001388
     9  H    0.000380  -0.001541   0.000182   0.002486  -0.000023  -0.000831
              7          8          9
     1  O   -0.035842  -0.003375   0.000380
     2  H   -0.008528  -0.000720  -0.001541
     3  H    0.001905  -0.000982   0.000182
     4  O   -0.034379  -0.010659   0.002486
     5  H   -0.000991  -0.000957  -0.000023
     6  H   -0.004557   0.001388  -0.000831
     7  O    7.878722   0.316494   0.359289
     8  H    0.316494   0.457058  -0.048038
     9  H    0.359289  -0.048038   0.508417
 Mulliken atomic charges:
              1
     1  O   -0.471665
     2  H    0.289391
     3  H    0.186751
     4  O   -0.467280
     5  H    0.187221
     6  H    0.278223
     7  O   -0.472113
     8  H    0.289791
     9  H    0.179680
 Sum of Mulliken charges=   0.00000
 Atomic charges with hydrogens summed into heavy atoms:
              1
     1  O    0.004477
     2  H    0.000000
     3  H    0.000000
     4  O   -0.001836
     5  H    0.000000
     6  H    0.000000
     7  O   -0.002641
     8  H    0.000000
     9  H    0.000000
 Sum of Mulliken charges=   0.00000
 Electronic spatial extent (au):  <R**2>=   333.9588
 Charge=     0.0000 electrons
 Dipole moment (field-independent basis, Debye):
    X=     0.0419    Y=    -0.1245    Z=     1.1223  Tot=     1.1300
 Quadrupole moment (field-independent basis, Debye-Ang):
   XX=   -16.6605   YY=   -17.1412   ZZ=   -19.6615
   XY=     0.0853   XZ=    -0.1956   YZ=    -6.4860
 Traceless Quadrupole moment (field-independent basis, Debye-Ang):
   XX=     1.1606   YY=     0.6799   ZZ=    -1.8405
   XY=     0.0853   XZ=    -0.1956   YZ=    -6.4860
 Octapole moment (field-independent basis, Debye-Ang**2):
  XXX=     3.4992  YYY=     3.3103  ZZZ=     0.7730  XYY=    -2.2674
  XXY=    -5.2570  XXZ=    11.7763  XZZ=    -0.2489  YZZ=     0.2070
  YYZ=    -4.1719  XYZ=    -0.1056
 Hexadecapole moment (field-independent basis, Debye-Ang**3):
 XXXX=  -149.2767 YYYY=  -152.4104 ZZZZ=   -21.4018 XXXY=    -1.2556
 XXXZ=    -0.4583 YYYX=     0.5900 YYYZ=   -24.6201 ZZZX=    -0.2636
 ZZZY=    -5.3456 XXYY=   -49.4964 XXZZ=   -30.3749 YYZZ=   -29.6013
 XXYZ=   -14.1159 YYXZ=    -0.3574 ZZXY=     0.3351
 N-N= 8.471738827182D+01 E-N=-7.110616609075D+02  KE= 2.276851933875D+02
 ***** Axes restored to original set *****
 -------------------------------------------------------------------
 Center     Atomic                   Forces (Hartrees/Bohr)
 Number     Number              X              Y              Z
 -------------------------------------------------------------------
    1          8           0.001365296    0.000943211    0.000716980
    2          1           0.002221955   -0.001373914   -0.005160308
    3          1          -0.002961671    0.000393672    0.003333754
    4          8          -0.000907782   -0.001548531    0.001072646
    5          1          -0.002718729    0.000029055   -0.003533334
    6          1           0.004124247    0.002227617    0.003233196
    7          8          -0.000790717    0.000589858   -0.001800380
    8          1          -0.004546251   -0.002371184    0.002356987
    9          1           0.004213652    0.001110215   -0.000219540
 -------------------------------------------------------------------
 Cartesian Forces:  Max     0.005160308 RMS     0.002498390

 GradGradGradGradGradGradGradGradGradGradGradGradGradGradGradGradGradGrad
 Berny optimization.
 Internal  Forces:  Max     0.004637304 RMS     0.002001846
 Search for a local minimum.
 Step number   1 out of a maximum of  43
 All quantities printed in internal units (Hartrees-Bohrs-Radians)
 Second derivative matrix not updated -- first step.
     Eigenvalues ---    0.00645   0.00717   0.00729   0.05109   0.05280
     Eigenvalues ---    0.05816   0.06190   0.06898   0.08036   0.09499
     Eigenvalues ---    0.10936   0.11058   0.19832   0.21055   0.21142
     Eigenvalues ---    0.48347   0.48534   0.50545   0.53699   0.53767
     Eigenvalues ---    0.537821000.000001000.000001000.000001000.00000
     Eigenvalues --- 1000.000001000.000001000.000001000.000001000.00000
     Eigenvalues --- 1000.000001000.000001000.00000
 RFO step:  Lambda=-5.46622452D-04.
 Linear search not attempted -- first point.
 Iteration  1 RMS(Cart)=  0.01013364 RMS(Int)=  0.00014778
 Iteration  2 RMS(Cart)=  0.00011185 RMS(Int)=  0.00007417
 Iteration  3 RMS(Cart)=  0.00000001 RMS(Int)=  0.00007417
 Variable       Old X    -DE/DX   Delta X   Delta X   Delta X     New X
                                 (Linear)    (Quad)   (Total)
    R1        1.85882  -0.00456   0.00000  -0.00905  -0.00906   1.84976
    R2        1.82944  -0.00380   0.00000  -0.00706  -0.00706   1.82238
    R3        3.53332   0.00057   0.00000   0.00954   0.00954   3.54286
    R4        3.58517   0.00041   0.00000   0.00781   0.00780   3.59297
    R5        1.82931  -0.00393   0.00000  -0.00730  -0.00730   1.82201
    R6        1.86098  -0.00464   0.00000  -0.00906  -0.00906   1.85192
    R7        3.53523   0.00043   0.00000   0.00885   0.00886   3.54409
    R8        1.86082  -0.00448   0.00000  -0.00891  -0.00890   1.85192
    R9        1.83007  -0.00375   0.00000  -0.00698  -0.00698   1.82309
    A1        1.86357  -0.00207   0.00000  -0.02524  -0.02523   1.83834
    A2        1.59721  -0.00027   0.00000  -0.00493  -0.00502   1.59219
    A3        2.16762   0.00040   0.00000   0.00294   0.00277   2.17038
    A4        2.57121   0.00006   0.00000   0.00304   0.00298   2.57419
    A5        2.26261   0.00094   0.00000   0.00175   0.00161   2.26422
    A6        1.58106  -0.00004   0.00000  -0.00393  -0.00398   1.57708
    A7        1.86443  -0.00183   0.00000  -0.02340  -0.02337   1.84106
    A8        2.61615   0.00011   0.00000   0.00344   0.00341   2.61956
    A9        1.57493  -0.00033   0.00000  -0.00407  -0.00408   1.57084
   A10        2.11547   0.00092   0.00000   0.00425   0.00414   2.11961
   A11        1.85863  -0.00189   0.00000  -0.02346  -0.02344   1.83519
   A12        2.61847   0.00039   0.00000   0.00385   0.00384   2.62231
    D1       -2.36405  -0.00081   0.00000  -0.02125  -0.02143  -2.38548
    D2       -0.15579  -0.00101   0.00000  -0.02649  -0.02645  -0.18224
    D3        0.05048   0.00086   0.00000   0.00091   0.00094   0.05141
    D4        1.99706  -0.00180   0.00000  -0.03329  -0.03333   1.96373
    D5        2.12654  -0.00140   0.00000  -0.00228  -0.00233   2.12421
    D6        0.16123   0.00076   0.00000   0.03215   0.03207   0.19330
    D7       -0.02118   0.00055   0.00000  -0.01218  -0.01206  -0.03324
    D8       -2.32565   0.00008   0.00000  -0.00574  -0.00588  -2.33154
    D9       -0.01507  -0.00057   0.00000   0.00370   0.00370  -0.01137
   D10       -1.92684   0.00169   0.00000   0.03330   0.03334  -1.89350
   D11        0.01273  -0.00030   0.00000   0.00817   0.00809   0.02082
   D12        2.15586   0.00019   0.00000   0.00664   0.00675   2.16261
         Item               Value     Threshold  Converged?
 Maximum Force            0.004637     0.000450     NO 
 RMS     Force            0.002002     0.000300     NO 
 Maximum Displacement     0.023194     0.001800     NO 
 RMS     Displacement     0.010209     0.001200     NO 
 Predicted change in Energy=-2.756122D-04
 GradGradGradGradGradGradGradGradGradGradGradGradGradGradGradGradGradGrad

                          Input orientation:                          
 ---------------------------------------------------------------------
 Center     Atomic     Atomic              Coordinates (Angstroms)
 Number     Number      Type              X           Y           Z
 ---------------------------------------------------------------------
    1          8             0       -0.005493    0.001488   -0.004098
    2          1             0        0.003014   -0.004484    0.974698
    3          1             0        0.922308   -0.000103   -0.267124
    4          8             0       -0.728832   -0.712826    2.580209
    5          1             0       -0.293146   -1.179397    3.302776
    6          1             0       -1.198921   -1.403788    2.068369
    7          8             0       -1.646320   -2.187070    0.424099
    8          1             0       -1.118957   -1.506324   -0.043732
    9          1             0       -2.535427   -2.113539    0.056954
 ---------------------------------------------------------------------
                    Distance matrix (angstroms):
                    1          2          3          4          5
     1  O    0.000000
     2  H    0.978851   0.000000
     3  H    0.964365   1.545071   0.000000
     4  O    2.777068   1.901319   3.367721   0.000000
     5  H    3.523159   2.624515   3.951234   0.964165   0.000000
     6  H    2.773841   2.144485   3.453183   0.979995   1.547430
     7  O    2.768655   2.790545   3.443612   2.768391   3.336655
     8  H    1.874799   2.133435   2.546639   2.768917   3.462364
     9  H    3.298126   3.425500   4.065412   3.404791   4.054110
                    6          7          8          9
     6  H    0.000000
     7  O    1.875452   0.000000
     8  H    2.116101   0.979996   0.000000
     9  H    2.517100   0.964736   1.544421   0.000000
 Stoichiometry    H6O3
 Framework group  C1[X(H6O3)]
 Deg. of freedom    21
 Full point group                 C1
 Largest Abelian subgroup         C1      NOp   1
 Largest concise Abelian subgroup C1      NOp   1
                         Standard orientation:                         
 ---------------------------------------------------------------------
 Center     Atomic     Atomic              Coordinates (Angstroms)
 Number     Number      Type              X           Y           Z
 ---------------------------------------------------------------------
    1          8             0       -1.445969   -0.687061   -0.087021
    2          1             0       -0.565035   -1.112048   -0.048407
    3          1             0       -1.963439   -1.109306    0.608633
    4          8             0        1.323305   -0.894883   -0.093424
    5          1             0        1.987413   -1.138187    0.561845
    6          1             0        1.219737    0.076287   -0.012843
    7          8             0        0.117995    1.588828    0.112474
    8          1             0       -0.675047    1.016104    0.053612
    9          1             0        0.033723    2.212088   -0.619071
 ---------------------------------------------------------------------
 Rotational constants (GHZ):      7.0145810      6.8976104      3.5484238
 Standard basis: Aug-CC-pVDZ (5D, 7F)
 There are   123 symmetry adapted basis functions of A   symmetry.
 Integral buffers will be    131072 words long.
 Raffenetti 1 integral format.
 Two-electron integral symmetry is turned on.
   123 basis functions,   195 primitive gaussians,   129 cartesian basis functions
    15 alpha electrons       15 beta electrons
       nuclear repulsion energy        84.8392909456 Hartrees.
 NAtoms=    9 NActive=    9 NUniq=    9 SFac= 7.50D-01 NAtFMM=   80 NAOKFM=F Big=F
 One-electron integrals computed using PRISM.
 NBasis=   123 RedAO= T  NBF=   123
 NBsUse=   123 1.00D-06 NBFU=   123
 Initial guess read from the read-write file:
 Initial guess orbital symmetries:
       Occupied  (A) (A) (A) (A) (A) (A) (A) (A) (A) (A) (A) (A)
                 (A) (A) (A)
       Virtual   (A) (A) (A) (A) (A) (A) (A) (A) (A) (A) (A) (A)
                 (A) (A) (A) (A) (A) (A) (A) (A) (A) (A) (A) (A)
                 (A) (A) (A) (A) (A) (A) (A) (A) (A) (A) (A) (A)
                 (A) (A) (A) (A) (A) (A) (A) (A) (A) (A) (A) (A)
                 (A) (A) (A) (A) (A) (A) (A) (A) (A) (A) (A) (A)
                 (A) (A) (A) (A) (A) (A) (A) (A) (A) (A) (A) (A)
                 (A) (A) (A) (A) (A) (A) (A) (A) (A) (A) (A) (A)
                 (A) (A) (A) (A) (A) (A) (A) (A) (A) (A) (A) (A)
                 (A) (A) (A) (A) (A) (A) (A) (A) (A) (A) (A) (A)
 Harris functional with IExCor=  205 diagonalized for initial guess.
 ExpMin= 2.97D-02 ExpMax= 1.17D+04 ExpMxC= 4.01D+02 IAcc=3 IRadAn=         5 AccDes= 0.00D+00
 HarFok:  IExCor= 205 AccDes= 0.00D+00 IRadAn=         5 IDoV=1
 ScaDFX=  1.000000  1.000000  1.000000  1.000000
 Requested convergence on RMS density matrix=1.00D-08 within 128 cycles.
 Requested convergence on MAX density matrix=1.00D-06.
 Requested convergence on             energy=1.00D-06.
 No special actions if energy rises.
 Keep R1 integrals in memory in canonical form, NReq=    37153658.
 SCF Done:  E(RHF) =  -228.138734546     A.U. after    9 cycles
             Convg  =    0.5705D-08             -V/T =  2.0018
             S**2   =   0.0000
 ExpMin= 2.97D-02 ExpMax= 1.17D+04 ExpMxC= 4.01D+02 IAcc=3 IRadAn=         5 AccDes= 0.00D+00
 HarFok:  IExCor= 205 AccDes= 0.00D+00 IRadAn=         5 IDoV=1
 ScaDFX=  1.000000  1.000000  1.000000  1.000000
 Range of M.O.s used for correlation:     4   123
 NBasis=   123 NAE=    15 NBE=    15 NFC=     3 NFV=     0
 NROrb=    120 NOA=    12 NOB=    12 NVA=   108 NVB=   108
 Fully direct method using O(ONN) memory.
 JobTyp=1 Pass  1:  I=   4 to  15 NPSUse=  2 ParTrn=T ParDer=T DoDerP=T.
 Spin components of T(2) and E(2):
     alpha-alpha T2 =       0.2397231236D-01 E2=     -0.8651251590D-01
     alpha-beta  T2 =       0.1321877825D+00 E2=     -0.4968972161D+00
     beta-beta   T2 =       0.2397231236D-01 E2=     -0.8651251590D-01
 ANorm=    0.1086338993D+01
 E2 =    -0.6699222479D+00 EUMP2 =    -0.22880865679351D+03
 DoAtom=TTTTTTTTT
          Differentiating once with respect to electric field.
                with respect to dipole field.
          Differentiating once with respect to nuclear coordinates.
          Store integrals in memory, NReq=    35979340.
          There are   1 degrees of freedom in the 1st order CPHF.
     1 vectors were produced by pass  0.
 AX will form   1 AO Fock derivatives at one time.
     1 vectors were produced by pass  1.
     1 vectors were produced by pass  2.
     1 vectors were produced by pass  3.
     1 vectors were produced by pass  4.
     1 vectors were produced by pass  5.
     1 vectors were produced by pass  6.
     1 vectors were produced by pass  7.
     1 vectors were produced by pass  8.
     1 vectors were produced by pass  9.
     1 vectors were produced by pass 10.
     1 vectors were produced by pass 11.
 Inv2:  IOpt= 1 Iter= 1 AM= 2.95D-16 Conv= 1.00D-12.
 Inverted reduced A of dimension   12 with in-core refinement.
 End of Minotr Frequency-dependent properties file   721 does not exist.
 ***** Axes restored to original set *****
 -------------------------------------------------------------------
 Center     Atomic                   Forces (Hartrees/Bohr)
 Number     Number              X              Y              Z
 -------------------------------------------------------------------
    1          8           0.000057787    0.000997810   -0.000484733
    2          1           0.000025962   -0.001021643   -0.000689465
    3          1           0.000615570    0.000344146   -0.000006156
    4          8          -0.000737267    0.000422618    0.000717515
    5          1           0.000050245   -0.000380038    0.000487118
    6          1           0.001153120    0.000596036   -0.000084874
    7          8          -0.000204217   -0.000754019   -0.000567181
    8          1          -0.000603006   -0.000140515    0.001168914
    9          1          -0.000358194   -0.000064395   -0.000541140
 -------------------------------------------------------------------
 Cartesian Forces:  Max     0.001168914 RMS     0.000598500

 GradGradGradGradGradGradGradGradGradGradGradGradGradGradGradGradGradGrad
 Berny optimization.
 Internal  Forces:  Max     0.000734210 RMS     0.000417898
 Search for a local minimum.
 Step number   2 out of a maximum of  43
 All quantities printed in internal units (Hartrees-Bohrs-Radians)
 Update second derivatives using D2CorX and points  1  2
 Trust test= 1.10D+00 RLast= 8.48D-02 DXMaxT set to 3.00D-01
     Eigenvalues ---    0.00637   0.00705   0.00724   0.04496   0.05268
     Eigenvalues ---    0.05798   0.06423   0.06978   0.08079   0.09446
     Eigenvalues ---    0.10370   0.10970   0.20333   0.21046   0.21120
     Eigenvalues ---    0.48346   0.48506   0.50708   0.53721   0.53775
     Eigenvalues ---    0.587771000.000001000.000001000.000001000.00000
     Eigenvalues --- 1000.000001000.000001000.000001000.000001000.00000
     Eigenvalues --- 1000.000001000.000001000.00000
 RFO step:  Lambda=-6.25048042D-05.
 Quartic linear search produced a step of  0.11478.
 Iteration  1 RMS(Cart)=  0.00578244 RMS(Int)=  0.00004366
 Iteration  2 RMS(Cart)=  0.00002930 RMS(Int)=  0.00002455
 Iteration  3 RMS(Cart)=  0.00000000 RMS(Int)=  0.00002455
 Variable       Old X    -DE/DX   Delta X   Delta X   Delta X     New X
                                 (Linear)    (Quad)   (Total)
    R1        1.84976   0.00004  -0.00104   0.00009  -0.00096   1.84880
    R2        1.82238   0.00059  -0.00081   0.00125   0.00044   1.82283
    R3        3.54286   0.00073   0.00110   0.01472   0.01582   3.55868
    R4        3.59297   0.00060   0.00090   0.01285   0.01374   3.60671
    R5        1.82201   0.00057  -0.00084   0.00121   0.00037   1.82238
    R6        1.85192  -0.00011  -0.00104  -0.00018  -0.00122   1.85071
    R7        3.54409   0.00068   0.00102   0.01436   0.01538   3.55948
    R8        1.85192  -0.00011  -0.00102  -0.00023  -0.00125   1.85068
    R9        1.82309   0.00053  -0.00080   0.00113   0.00032   1.82341
    A1        1.83834   0.00006  -0.00290  -0.00116  -0.00402   1.83431
    A2        1.59219  -0.00068  -0.00058  -0.00467  -0.00529   1.58691
    A3        2.17038   0.00034   0.00032   0.00294   0.00322   2.17360
    A4        2.57419   0.00058   0.00034   0.00330   0.00359   2.57778
    A5        2.26422   0.00033   0.00018   0.00168   0.00186   2.26608
    A6        1.57708  -0.00058  -0.00046  -0.00400  -0.00448   1.57260
    A7        1.84106   0.00004  -0.00268  -0.00164  -0.00431   1.83675
    A8        2.61956   0.00063   0.00039   0.00373   0.00409   2.62366
    A9        1.57084  -0.00069  -0.00047  -0.00426  -0.00472   1.56612
   A10        2.11961   0.00047   0.00048   0.00376   0.00422   2.12384
   A11        1.83519   0.00006  -0.00269  -0.00120  -0.00387   1.83132
   A12        2.62231   0.00073   0.00044   0.00396   0.00438   2.62669
    D1       -2.38548  -0.00034  -0.00246  -0.01790  -0.02041  -2.40588
    D2       -0.18224  -0.00021  -0.00304  -0.01670  -0.01975  -0.20198
    D3        0.05141   0.00011   0.00011   0.00063   0.00073   0.05214
    D4        1.96373  -0.00023  -0.00383  -0.00345  -0.00730   1.95642
    D5        2.12421  -0.00018  -0.00027   0.01512   0.01484   2.13905
    D6        0.19330   0.00018   0.00368   0.02034   0.02400   0.21730
    D7       -0.03324   0.00007  -0.00138  -0.00794  -0.00927  -0.04251
    D8       -2.33154  -0.00008  -0.00068  -0.00782  -0.00851  -2.34004
    D9       -0.01137  -0.00003   0.00042   0.00293   0.00337  -0.00799
   D10       -1.89350   0.00025   0.00383   0.00635   0.01020  -1.88330
   D11        0.02082  -0.00008   0.00093   0.00476   0.00566   0.02648
   D12        2.16261   0.00020   0.00077   0.00714   0.00793   2.17054
         Item               Value     Threshold  Converged?
 Maximum Force            0.000734     0.000450     NO 
 RMS     Force            0.000418     0.000300     NO 
 Maximum Displacement     0.011567     0.001800     NO 
 RMS     Displacement     0.005788     0.001200     NO 
 Predicted change in Energy=-3.510617D-05
 GradGradGradGradGradGradGradGradGradGradGradGradGradGradGradGradGradGrad

                          Input orientation:                          
 ---------------------------------------------------------------------
 Center     Atomic     Atomic              Coordinates (Angstroms)
 Number     Number      Type              X           Y           Z
 ---------------------------------------------------------------------
    1          8             0       -0.003728    0.005499   -0.006778
    2          1             0        0.009135   -0.007734    0.971393
    3          1             0        0.924183    0.005507   -0.270279
    4          8             0       -0.728361   -0.711253    2.585047
    5          1             0       -0.296665   -1.180907    3.308273
    6          1             0       -1.195924   -1.402253    2.072182
    7          8             0       -1.649320   -2.190690    0.422721
    8          1             0       -1.123847   -1.507895   -0.042863
    9          1             0       -2.537249   -2.116318    0.052455
 ---------------------------------------------------------------------
                    Distance matrix (angstroms):
                    1          2          3          4          5
     1  O    0.000000
     2  H    0.978345   0.000000
     3  H    0.964599   1.542478   0.000000
     4  O    2.785029   1.908591   3.376024   0.000000
     5  H    3.533120   2.632652   3.962838   0.964361   0.000000
     6  H    2.779420   2.146762   3.458869   0.979351   1.544534
     7  O    2.777713   2.795856   3.453469   2.777149   3.343016
     8  H    1.883170   2.136081   2.556663   2.774340   3.467170
     9  H    3.305199   3.431419   4.072813   3.414719   4.061473
                    6          7          8          9
     6  H    0.000000
     7  O    1.883593   0.000000
     8  H    2.118909   0.979337   0.000000
     9  H    2.527516   0.964907   1.541742   0.000000
 Stoichiometry    H6O3
 Framework group  C1[X(H6O3)]
 Deg. of freedom    21
 Full point group                 C1
 Largest Abelian subgroup         C1      NOp   1
 Largest concise Abelian subgroup C1      NOp   1
                         Standard orientation:                         
 ---------------------------------------------------------------------
 Center     Atomic     Atomic              Coordinates (Angstroms)
 Number     Number      Type              X           Y           Z
 ---------------------------------------------------------------------
    1          8             0       -1.454647   -0.680150   -0.087219
    2          1             0       -0.576031   -1.107980   -0.040791
    3          1             0       -1.975508   -1.099840    0.607774
    4          8             0        1.321159   -0.906529   -0.093761
    5          1             0        1.986731   -1.149746    0.560343
    6          1             0        1.222143    0.064326   -0.011512
    7          8             0        0.128931    1.593196    0.112457
    8          1             0       -0.665824    1.024223    0.051347
    9          1             0        0.044940    2.216885   -0.618982
 ---------------------------------------------------------------------
 Rotational constants (GHZ):      6.9722633      6.8597420      3.5274430
 Standard basis: Aug-CC-pVDZ (5D, 7F)
 There are   123 symmetry adapted basis functions of A   symmetry.
 Integral buffers will be    131072 words long.
 Raffenetti 1 integral format.
 Two-electron integral symmetry is turned on.
   123 basis functions,   195 primitive gaussians,   129 cartesian basis functions
    15 alpha electrons       15 beta electrons
       nuclear repulsion energy        84.6722437902 Hartrees.
 NAtoms=    9 NActive=    9 NUniq=    9 SFac= 7.50D-01 NAtFMM=   80 NAOKFM=F Big=F
 One-electron integrals computed using PRISM.
 NBasis=   123 RedAO= T  NBF=   123
 NBsUse=   123 1.00D-06 NBFU=   123
 Initial guess read from the read-write file:
 Initial guess orbital symmetries:
       Occupied  (A) (A) (A) (A) (A) (A) (A) (A) (A) (A) (A) (A)
                 (A) (A) (A)
       Virtual   (A) (A) (A) (A) (A) (A) (A) (A) (A) (A) (A) (A)
                 (A) (A) (A) (A) (A) (A) (A) (A) (A) (A) (A) (A)
                 (A) (A) (A) (A) (A) (A) (A) (A) (A) (A) (A) (A)
                 (A) (A) (A) (A) (A) (A) (A) (A) (A) (A) (A) (A)
                 (A) (A) (A) (A) (A) (A) (A) (A) (A) (A) (A) (A)
                 (A) (A) (A) (A) (A) (A) (A) (A) (A) (A) (A) (A)
                 (A) (A) (A) (A) (A) (A) (A) (A) (A) (A) (A) (A)
                 (A) (A) (A) (A) (A) (A) (A) (A) (A) (A) (A) (A)
                 (A) (A) (A) (A) (A) (A) (A) (A) (A) (A) (A) (A)
 Requested convergence on RMS density matrix=1.00D-08 within 128 cycles.
 Requested convergence on MAX density matrix=1.00D-06.
 Requested convergence on             energy=1.00D-06.
 No special actions if energy rises.
 Keep R1 integrals in memory in canonical form, NReq=    37153658.
 SCF Done:  E(RHF) =  -228.138916674     A.U. after    8 cycles
             Convg  =    0.5367D-08             -V/T =  2.0018
             S**2   =   0.0000
 ExpMin= 2.97D-02 ExpMax= 1.17D+04 ExpMxC= 4.01D+02 IAcc=3 IRadAn=         5 AccDes= 0.00D+00
 HarFok:  IExCor= 205 AccDes= 0.00D+00 IRadAn=         5 IDoV=1
 ScaDFX=  1.000000  1.000000  1.000000  1.000000
 Range of M.O.s used for correlation:     4   123
 NBasis=   123 NAE=    15 NBE=    15 NFC=     3 NFV=     0
 NROrb=    120 NOA=    12 NOB=    12 NVA=   108 NVB=   108
 Fully direct method using O(ONN) memory.
 JobTyp=1 Pass  1:  I=   4 to  15 NPSUse=  2 ParTrn=T ParDer=T DoDerP=T.
 Spin components of T(2) and E(2):
     alpha-alpha T2 =       0.2396402979D-01 E2=     -0.8647541162D-01
     alpha-beta  T2 =       0.1321919907D+00 E2=     -0.4968468501D+00
     beta-beta   T2 =       0.2396402979D-01 E2=     -0.8647541162D-01
 ANorm=    0.1086333305D+01
 E2 =    -0.6697976733D+00 EUMP2 =    -0.22880871434781D+03
 DoAtom=TTTTTTTTT
          Differentiating once with respect to electric field.
                with respect to dipole field.
          Differentiating once with respect to nuclear coordinates.
          Store integrals in memory, NReq=    35979340.
          There are   1 degrees of freedom in the 1st order CPHF.
     1 vectors were produced by pass  0.
 AX will form   1 AO Fock derivatives at one time.
     1 vectors were produced by pass  1.
     1 vectors were produced by pass  2.
     1 vectors were produced by pass  3.
     1 vectors were produced by pass  4.
     1 vectors were produced by pass  5.
     1 vectors were produced by pass  6.
     1 vectors were produced by pass  7.
     1 vectors were produced by pass  8.
     1 vectors were produced by pass  9.
     1 vectors were produced by pass 10.
     1 vectors were produced by pass 11.
 Inv2:  IOpt= 1 Iter= 1 AM= 2.87D-16 Conv= 1.00D-12.
 Inverted reduced A of dimension   12 with in-core refinement.
 End of Minotr Frequency-dependent properties file   721 does not exist.
 ***** Axes restored to original set *****
 -------------------------------------------------------------------
 Center     Atomic                   Forces (Hartrees/Bohr)
 Number     Number              X              Y              Z
 -------------------------------------------------------------------
    1          8           0.000404879    0.000701646   -0.000399437
    2          1          -0.000294235   -0.000767837   -0.000239856
    3          1           0.000400440    0.000298033   -0.000259059
    4          8          -0.000400650    0.000157907    0.000737063
    5          1           0.000144357   -0.000097583    0.000503038
    6          1           0.000646555    0.000429726   -0.000405582
    7          8          -0.000431465   -0.000541560   -0.000541500
    8          1          -0.000096542    0.000055797    0.000899188
    9          1          -0.000373338   -0.000236128   -0.000293855
 -------------------------------------------------------------------
 Cartesian Forces:  Max     0.000899188 RMS     0.000452164

 GradGradGradGradGradGradGradGradGradGradGradGradGradGradGradGradGradGrad
 Berny optimization.
 Internal  Forces:  Max     0.000626710 RMS     0.000355359
 Search for a local minimum.
 Step number   3 out of a maximum of  43
 All quantities printed in internal units (Hartrees-Bohrs-Radians)
 Update second derivatives using D2CorX and points  1  2  3
 Trust test= 1.64D+00 RLast= 5.39D-02 DXMaxT set to 3.00D-01
     Eigenvalues ---    0.00443   0.00670   0.00721   0.02587   0.05259
     Eigenvalues ---    0.05800   0.06862   0.07225   0.08084   0.09424
     Eigenvalues ---    0.10283   0.11156   0.18378   0.21034   0.21122
     Eigenvalues ---    0.48353   0.48518   0.52141   0.53722   0.53782
     Eigenvalues ---    0.598301000.000001000.000001000.000001000.00000
     Eigenvalues --- 1000.000001000.000001000.000001000.000001000.00000
     Eigenvalues --- 1000.000001000.000001000.00000
 RFO step:  Lambda=-3.31021352D-05.
 Quartic linear search produced a step of  2.00000.
 Iteration  1 RMS(Cart)=  0.01542562 RMS(Int)=  0.00025051
 Iteration  2 RMS(Cart)=  0.00017398 RMS(Int)=  0.00014366
 Iteration  3 RMS(Cart)=  0.00000005 RMS(Int)=  0.00014366
 Variable       Old X    -DE/DX   Delta X   Delta X   Delta X     New X
                                 (Linear)    (Quad)   (Total)
    R1        1.84880   0.00031  -0.00191   0.00071  -0.00124   1.84756
    R2        1.82283   0.00046   0.00089  -0.00003   0.00085   1.82368
    R3        3.55868   0.00055   0.03164   0.00802   0.03967   3.59834
    R4        3.60671   0.00044   0.02748   0.00639   0.03383   3.64055
    R5        1.82238   0.00049   0.00074   0.00018   0.00092   1.82330
    R6        1.85071   0.00023  -0.00244   0.00078  -0.00164   1.84906
    R7        3.55948   0.00052   0.03077   0.00801   0.03882   3.59829
    R8        1.85068   0.00022  -0.00249   0.00072  -0.00174   1.84894
    R9        1.82341   0.00044   0.00065   0.00006   0.00071   1.82412
    A1        1.83431   0.00031  -0.00805   0.00545  -0.00238   1.83193
    A2        1.58691  -0.00058  -0.01057  -0.00275  -0.01354   1.57337
    A3        2.17360   0.00030   0.00644   0.00289   0.00923   2.18283
    A4        2.57778   0.00053   0.00718   0.00213   0.00893   2.58671
    A5        2.26608   0.00020   0.00371   0.00136   0.00517   2.27124
    A6        1.57260  -0.00053  -0.00896  -0.00245  -0.01156   1.56104
    A7        1.83675   0.00028  -0.00861   0.00498  -0.00352   1.83323
    A8        2.62366   0.00056   0.00819   0.00241   0.01044   2.63409
    A9        1.56612  -0.00061  -0.00944  -0.00293  -0.01233   1.55379
   A10        2.12384   0.00034   0.00845   0.00279   0.01125   2.13509
   A11        1.83132   0.00029  -0.00774   0.00473  -0.00281   1.82851
   A12        2.62669   0.00063   0.00876   0.00256   0.01118   2.63787
    D1       -2.40588  -0.00023  -0.04081  -0.01118  -0.05213  -2.45801
    D2       -0.20198  -0.00005  -0.03949  -0.00788  -0.04748  -0.24947
    D3        0.05214  -0.00001   0.00145  -0.00007   0.00127   0.05342
    D4        1.95642   0.00002  -0.01461   0.00541  -0.00939   1.94703
    D5        2.13905   0.00002   0.02968   0.01475   0.04435   2.18340
    D6        0.21730   0.00005   0.04801   0.00984   0.05781   0.27512
    D7       -0.04251   0.00001  -0.01853  -0.00432  -0.02253  -0.06504
    D8       -2.34004  -0.00008  -0.01702  -0.00609  -0.02304  -2.36309
    D9       -0.00799   0.00004   0.00675   0.00198   0.00894   0.00095
   D10       -1.88330   0.00002   0.02040  -0.00229   0.01827  -1.86502
   D11        0.02648  -0.00004   0.01132   0.00237   0.01353   0.04001
   D12        2.17054   0.00017   0.01586   0.00517   0.02105   2.19159
         Item               Value     Threshold  Converged?
 Maximum Force            0.000627     0.000450     NO 
 RMS     Force            0.000355     0.000300     NO 
 Maximum Displacement     0.032384     0.001800     NO 
 RMS     Displacement     0.015448     0.001200     NO 
 Predicted change in Energy=-5.999437D-05
 GradGradGradGradGradGradGradGradGradGradGradGradGradGradGradGradGradGrad

                          Input orientation:                          
 ---------------------------------------------------------------------
 Center     Atomic     Atomic              Coordinates (Angstroms)
 Number     Number      Type              X           Y           Z
 ---------------------------------------------------------------------
    1          8             0        0.003025    0.015413   -0.012039
    2          1             0        0.024985   -0.016688    0.964874
    3          1             0        0.929521    0.021240   -0.282026
    4          8             0       -0.727042   -0.709145    2.597766
    5          1             0       -0.305046   -1.181786    3.325410
    6          1             0       -1.189318   -1.399462    2.080861
    7          8             0       -1.658167   -2.198734    0.417409
    8          1             0       -1.135489   -1.510610   -0.041494
    9          1             0       -2.544242   -2.126271    0.041388
 ---------------------------------------------------------------------
                    Distance matrix (angstroms):
                    1          2          3          4          5
     1  O    0.000000
     2  H    0.977687   0.000000
     3  H    0.965050   1.540903   0.000000
     4  O    2.805186   1.926494   3.401597   0.000000
     5  H    3.559039   2.653018   3.998127   0.964850   0.000000
     6  H    2.793526   2.152214   3.477227   0.978482   1.542149
     7  O    2.801148   2.809634   3.480462   2.799968   3.364757
     8  H    1.904161   2.142728   2.582380   2.788345   3.483361
     9  H    3.328398   3.450231   4.096758   3.441733   4.085444
                    6          7          8          9
     6  H    0.000000
     7  O    1.904134   0.000000
     8  H    2.125946   0.978416   0.000000
     9  H    2.554118   0.965283   1.539640   0.000000
 Stoichiometry    H6O3
 Framework group  C1[X(H6O3)]
 Deg. of freedom    21
 Full point group                 C1
 Largest Abelian subgroup         C1      NOp   1
 Largest concise Abelian subgroup C1      NOp   1
                         Standard orientation:                         
 ---------------------------------------------------------------------
 Center     Atomic     Atomic              Coordinates (Angstroms)
 Number     Number      Type              X           Y           Z
 ---------------------------------------------------------------------
    1          8             0       -1.476231   -0.662940   -0.087557
    2          1             0       -0.602750   -1.097311   -0.022560
    3          1             0       -2.011008   -1.074275    0.602471
    4          8             0        1.315636   -0.935885   -0.094058
    5          1             0        1.985296   -1.184990    0.554353
    6          1             0        1.227578    0.034814   -0.007931
    7          8             0        0.156372    1.604470    0.112161
    8          1             0       -0.642823    1.043950    0.045806
    9          1             0        0.077489    2.232644   -0.616500
 ---------------------------------------------------------------------
 Rotational constants (GHZ):      6.8618218      6.7640382      3.4730458
 Standard basis: Aug-CC-pVDZ (5D, 7F)
 There are   123 symmetry adapted basis functions of A   symmetry.
 Integral buffers will be    131072 words long.
 Raffenetti 1 integral format.
 Two-electron integral symmetry is turned on.
   123 basis functions,   195 primitive gaussians,   129 cartesian basis functions
    15 alpha electrons       15 beta electrons
       nuclear repulsion energy        84.2296717558 Hartrees.
 NAtoms=    9 NActive=    9 NUniq=    9 SFac= 7.50D-01 NAtFMM=   80 NAOKFM=F Big=F
 One-electron integrals computed using PRISM.
 NBasis=   123 RedAO= T  NBF=   123
 NBsUse=   123 1.00D-06 NBFU=   123
 Initial guess read from the read-write file:
 Initial guess orbital symmetries:
       Occupied  (A) (A) (A) (A) (A) (A) (A) (A) (A) (A) (A) (A)
                 (A) (A) (A)
       Virtual   (A) (A) (A) (A) (A) (A) (A) (A) (A) (A) (A) (A)
                 (A) (A) (A) (A) (A) (A) (A) (A) (A) (A) (A) (A)
                 (A) (A) (A) (A) (A) (A) (A) (A) (A) (A) (A) (A)
                 (A) (A) (A) (A) (A) (A) (A) (A) (A) (A) (A) (A)
                 (A) (A) (A) (A) (A) (A) (A) (A) (A) (A) (A) (A)
                 (A) (A) (A) (A) (A) (A) (A) (A) (A) (A) (A) (A)
                 (A) (A) (A) (A) (A) (A) (A) (A) (A) (A) (A) (A)
                 (A) (A) (A) (A) (A) (A) (A) (A) (A) (A) (A) (A)
                 (A) (A) (A) (A) (A) (A) (A) (A) (A) (A) (A) (A)
 Harris functional with IExCor=  205 diagonalized for initial guess.
 ExpMin= 2.97D-02 ExpMax= 1.17D+04 ExpMxC= 4.01D+02 IAcc=3 IRadAn=         5 AccDes= 0.00D+00
 HarFok:  IExCor= 205 AccDes= 0.00D+00 IRadAn=         5 IDoV=1
 ScaDFX=  1.000000  1.000000  1.000000  1.000000
 Requested convergence on RMS density matrix=1.00D-08 within 128 cycles.
 Requested convergence on MAX density matrix=1.00D-06.
 Requested convergence on             energy=1.00D-06.
 No special actions if energy rises.
 Keep R1 integrals in memory in canonical form, NReq=    37153658.
 SCF Done:  E(RHF) =  -228.139272149     A.U. after    9 cycles
             Convg  =    0.6649D-08             -V/T =  2.0018
             S**2   =   0.0000
 ExpMin= 2.97D-02 ExpMax= 1.17D+04 ExpMxC= 4.01D+02 IAcc=3 IRadAn=         5 AccDes= 0.00D+00
 HarFok:  IExCor= 205 AccDes= 0.00D+00 IRadAn=         5 IDoV=1
 ScaDFX=  1.000000  1.000000  1.000000  1.000000
 Range of M.O.s used for correlation:     4   123
 NBasis=   123 NAE=    15 NBE=    15 NFC=     3 NFV=     0
 NROrb=    120 NOA=    12 NOB=    12 NVA=   108 NVB=   108
 Fully direct method using O(ONN) memory.
 JobTyp=1 Pass  1:  I=   4 to  15 NPSUse=  2 ParTrn=T ParDer=T DoDerP=T.
 Spin components of T(2) and E(2):
     alpha-alpha T2 =       0.2394748713D-01 E2=     -0.8638682217D-01
     alpha-beta  T2 =       0.1322257982D+00 E2=     -0.4967387139D+00
     beta-beta   T2 =       0.2394748713D-01 E2=     -0.8638682217D-01
 ANorm=    0.1086333638D+01
 E2 =    -0.6695123582D+00 EUMP2 =    -0.22880878450738D+03
 DoAtom=TTTTTTTTT
          Differentiating once with respect to electric field.
                with respect to dipole field.
          Differentiating once with respect to nuclear coordinates.
          Store integrals in memory, NReq=    35979340.
          There are   1 degrees of freedom in the 1st order CPHF.
     1 vectors were produced by pass  0.
 AX will form   1 AO Fock derivatives at one time.
     1 vectors were produced by pass  1.
     1 vectors were produced by pass  2.
     1 vectors were produced by pass  3.
     1 vectors were produced by pass  4.
     1 vectors were produced by pass  5.
     1 vectors were produced by pass  6.
     1 vectors were produced by pass  7.
     1 vectors were produced by pass  8.
     1 vectors were produced by pass  9.
     1 vectors were produced by pass 10.
     1 vectors were produced by pass 11.
 Inv2:  IOpt= 1 Iter= 1 AM= 2.63D-16 Conv= 1.00D-12.
 Inverted reduced A of dimension   12 with in-core refinement.
 End of Minotr Frequency-dependent properties file   721 does not exist.
 ***** Axes restored to original set *****
 -------------------------------------------------------------------
 Center     Atomic                   Forces (Hartrees/Bohr)
 Number     Number              X              Y              Z
 -------------------------------------------------------------------
    1          8           0.000533738   -0.000065677   -0.000120587
    2          1          -0.000442275   -0.000161309    0.000220285
    3          1          -0.000039527    0.000189487   -0.000274649
    4          8           0.000138103   -0.000230185    0.000317199
    5          1           0.000079839    0.000210502    0.000203371
    6          1          -0.000031178    0.000123569   -0.000445461
    7          8          -0.000420035   -0.000000883   -0.000225396
    8          1           0.000299199    0.000207337    0.000292081
    9          1          -0.000117864   -0.000272841    0.000033158
 -------------------------------------------------------------------
 Cartesian Forces:  Max     0.000533738 RMS     0.000250973

 GradGradGradGradGradGradGradGradGradGradGradGradGradGradGradGradGradGrad
 Berny optimization.
 Internal  Forces:  Max     0.000329189 RMS     0.000180217
 Search for a local minimum.
 Step number   4 out of a maximum of  43
 All quantities printed in internal units (Hartrees-Bohrs-Radians)
 Update second derivatives using D2CorX and points  1  2  3  4
 Trust test= 1.17D+00 RLast= 1.33D-01 DXMaxT set to 3.99D-01
     Eigenvalues ---    0.00400   0.00669   0.00722   0.02532   0.05259
     Eigenvalues ---    0.05788   0.06817   0.07070   0.08049   0.09388
     Eigenvalues ---    0.10084   0.11062   0.17141   0.20992   0.21105
     Eigenvalues ---    0.48364   0.48517   0.51578   0.53722   0.53782
     Eigenvalues ---    0.565511000.000001000.000001000.000001000.00000
     Eigenvalues --- 1000.000001000.000001000.000001000.000001000.00000
     Eigenvalues --- 1000.000001000.000001000.00000
 RFO step:  Lambda=-6.47439085D-06.
 Quartic linear search produced a step of  0.18553.
 Iteration  1 RMS(Cart)=  0.00381930 RMS(Int)=  0.00002504
 Iteration  2 RMS(Cart)=  0.00000820 RMS(Int)=  0.00002321
 Iteration  3 RMS(Cart)=  0.00000000 RMS(Int)=  0.00002321
 Variable       Old X    -DE/DX   Delta X   Delta X   Delta X     New X
                                 (Linear)    (Quad)   (Total)
    R1        1.84756   0.00028  -0.00023   0.00039   0.00015   1.84771
    R2        1.82368   0.00004   0.00016  -0.00009   0.00006   1.82374
    R3        3.59834   0.00006   0.00736   0.00018   0.00754   3.60589
    R4        3.64055   0.00002   0.00628  -0.00051   0.00576   3.64630
    R5        1.82330   0.00009   0.00017  -0.00002   0.00015   1.82345
    R6        1.84906   0.00028  -0.00030   0.00040   0.00009   1.84916
    R7        3.59829   0.00007   0.00720   0.00039   0.00759   3.60589
    R8        1.84894   0.00028  -0.00032   0.00040   0.00008   1.84902
    R9        1.82412   0.00007   0.00013  -0.00002   0.00011   1.82423
    A1        1.83193   0.00032  -0.00044   0.00299   0.00259   1.83452
    A2        1.57337  -0.00022  -0.00251  -0.00037  -0.00292   1.57045
    A3        2.18283   0.00020   0.00171   0.00184   0.00354   2.18637
    A4        2.58671   0.00023   0.00166   0.00053   0.00212   2.58883
    A5        2.27124   0.00003   0.00096   0.00071   0.00168   2.27293
    A6        1.56104  -0.00021  -0.00214  -0.00038  -0.00255   1.55849
    A7        1.83323   0.00033  -0.00065   0.00291   0.00227   1.83551
    A8        2.63409   0.00022   0.00194   0.00052   0.00243   2.63653
    A9        1.55379  -0.00024  -0.00229  -0.00075  -0.00303   1.55075
   A10        2.13509   0.00012   0.00209   0.00119   0.00328   2.13837
   A11        1.82851   0.00031  -0.00052   0.00266   0.00217   1.83068
   A12        2.63787   0.00024   0.00207   0.00060   0.00265   2.64051
    D1       -2.45801  -0.00008  -0.00967  -0.00159  -0.01128  -2.46928
    D2       -0.24947   0.00013  -0.00881   0.00083  -0.00800  -0.25747
    D3        0.05342  -0.00009   0.00024  -0.00046  -0.00025   0.05317
    D4        1.94703   0.00019  -0.00174   0.00342   0.00165   1.94868
    D5        2.18340   0.00015   0.00823   0.00297   0.01118   2.19459
    D6        0.27512  -0.00012   0.01073  -0.00079   0.00993   0.28505
    D7       -0.06504  -0.00003  -0.00418  -0.00008  -0.00420  -0.06924
    D8       -2.36309  -0.00006  -0.00428  -0.00135  -0.00561  -2.36869
    D9        0.00095   0.00008   0.00166   0.00027   0.00197   0.00292
   D10       -1.86502  -0.00015   0.00339  -0.00263   0.00079  -1.86424
   D11        0.04001  -0.00001   0.00251   0.00000   0.00249   0.04249
   D12        2.19159   0.00009   0.00390   0.00142   0.00533   2.19691
         Item               Value     Threshold  Converged?
 Maximum Force            0.000329     0.000450     YES
 RMS     Force            0.000180     0.000300     YES
 Maximum Displacement     0.009045     0.001800     NO 
 RMS     Displacement     0.003820     0.001200     NO 
 Predicted change in Energy=-4.806115D-06
 GradGradGradGradGradGradGradGradGradGradGradGradGradGradGradGradGradGrad

                          Input orientation:                          
 ---------------------------------------------------------------------
 Center     Atomic     Atomic              Coordinates (Angstroms)
 Number     Number      Type              X           Y           Z
 ---------------------------------------------------------------------
    1          8             0        0.005371    0.016940   -0.012523
    2          1             0        0.028326   -0.019030    0.964313
    3          1             0        0.930924    0.025579   -0.285769
    4          8             0       -0.726497   -0.709441    2.600376
    5          1             0       -0.306598   -1.180755    3.330197
    6          1             0       -1.188195   -1.399183    2.082095
    7          8             0       -1.660697   -2.199876    0.415758
    8          1             0       -1.137725   -1.510658   -0.041256
    9          1             0       -2.546683   -2.129620    0.038959
 ---------------------------------------------------------------------
                    Distance matrix (angstroms):
                    1          2          3          4          5
     1  O    0.000000
     2  H    0.977767   0.000000
     3  H    0.965084   1.542523   0.000000
     4  O    2.809004   1.929541   3.408392   0.000000
     5  H    3.564488   2.656913   4.007731   0.964930   0.000000
     6  H    2.795967   2.152715   3.482441   0.978532   1.543594
     7  O    2.805973   2.812436   3.487305   2.804761   3.371371
     8  H    1.908154   2.143780   2.588266   2.790928   3.488023
     9  H    3.335169   3.455652   4.104154   3.448310   4.092745
                    6          7          8          9
     6  H    0.000000
     7  O    1.908153   0.000000
     8  H    2.126875   0.978460   0.000000
     9  H    2.559967   0.965341   1.541009   0.000000
 Stoichiometry    H6O3
 Framework group  C1[X(H6O3)]
 Deg. of freedom    21
 Full point group                 C1
 Largest Abelian subgroup         C1      NOp   1
 Largest concise Abelian subgroup C1      NOp   1
                         Standard orientation:                         
 ---------------------------------------------------------------------
 Center     Atomic     Atomic              Coordinates (Angstroms)
 Number     Number      Type              X           Y           Z
 ---------------------------------------------------------------------
    1          8             0       -1.481018   -0.658094   -0.087458
    2          1             0       -0.608667   -1.094439   -0.019369
    3          1             0       -2.021299   -1.067291    0.599593
    4          8             0        1.313484   -0.943089   -0.093898
    5          1             0        1.984070   -1.196420    0.552034
    6          1             0        1.228308    0.027858   -0.007116
    7          8             0        0.163428    1.606749    0.111973
    8          1             0       -0.637120    1.048194    0.044714
    9          1             0        0.087549    2.237570   -0.614793
 ---------------------------------------------------------------------
 Rotational constants (GHZ):      6.8378717      6.7457328      3.4616319
 Standard basis: Aug-CC-pVDZ (5D, 7F)
 There are   123 symmetry adapted basis functions of A   symmetry.
 Integral buffers will be    131072 words long.
 Raffenetti 1 integral format.
 Two-electron integral symmetry is turned on.
   123 basis functions,   195 primitive gaussians,   129 cartesian basis functions
    15 alpha electrons       15 beta electrons
       nuclear repulsion energy        84.1351823725 Hartrees.
 NAtoms=    9 NActive=    9 NUniq=    9 SFac= 7.50D-01 NAtFMM=   80 NAOKFM=F Big=F
 One-electron integrals computed using PRISM.
 NBasis=   123 RedAO= T  NBF=   123
 NBsUse=   123 1.00D-06 NBFU=   123
 Initial guess read from the read-write file:
 Initial guess orbital symmetries:
       Occupied  (A) (A) (A) (A) (A) (A) (A) (A) (A) (A) (A) (A)
                 (A) (A) (A)
       Virtual   (A) (A) (A) (A) (A) (A) (A) (A) (A) (A) (A) (A)
                 (A) (A) (A) (A) (A) (A) (A) (A) (A) (A) (A) (A)
                 (A) (A) (A) (A) (A) (A) (A) (A) (A) (A) (A) (A)
                 (A) (A) (A) (A) (A) (A) (A) (A) (A) (A) (A) (A)
                 (A) (A) (A) (A) (A) (A) (A) (A) (A) (A) (A) (A)
                 (A) (A) (A) (A) (A) (A) (A) (A) (A) (A) (A) (A)
                 (A) (A) (A) (A) (A) (A) (A) (A) (A) (A) (A) (A)
                 (A) (A) (A) (A) (A) (A) (A) (A) (A) (A) (A) (A)
                 (A) (A) (A) (A) (A) (A) (A) (A) (A) (A) (A) (A)
 Requested convergence on RMS density matrix=1.00D-08 within 128 cycles.
 Requested convergence on MAX density matrix=1.00D-06.
 Requested convergence on             energy=1.00D-06.
 No special actions if energy rises.
 Keep R1 integrals in memory in canonical form, NReq=    37153658.
 SCF Done:  E(RHF) =  -228.139334022     A.U. after    8 cycles
             Convg  =    0.4743D-08             -V/T =  2.0018
             S**2   =   0.0000
 ExpMin= 2.97D-02 ExpMax= 1.17D+04 ExpMxC= 4.01D+02 IAcc=3 IRadAn=         5 AccDes= 0.00D+00
 HarFok:  IExCor= 205 AccDes= 0.00D+00 IRadAn=         5 IDoV=1
 ScaDFX=  1.000000  1.000000  1.000000  1.000000
 Range of M.O.s used for correlation:     4   123
 NBasis=   123 NAE=    15 NBE=    15 NFC=     3 NFV=     0
 NROrb=    120 NOA=    12 NOB=    12 NVA=   108 NVB=   108
 Fully direct method using O(ONN) memory.
 JobTyp=1 Pass  1:  I=   4 to  15 NPSUse=  2 ParTrn=T ParDer=T DoDerP=T.
 Spin components of T(2) and E(2):
     alpha-alpha T2 =       0.2394490248D-01 E2=     -0.8636968086D-01
     alpha-beta  T2 =       0.1322359998D+00 E2=     -0.4967172480D+00
     beta-beta   T2 =       0.2394490248D-01 E2=     -0.8636968086D-01
 ANorm=    0.1086335954D+01
 E2 =    -0.6694566097D+00 EUMP2 =    -0.22880879063118D+03
 DoAtom=TTTTTTTTT
          Differentiating once with respect to electric field.
                with respect to dipole field.
          Differentiating once with respect to nuclear coordinates.
          Store integrals in memory, NReq=    35979340.
          There are   1 degrees of freedom in the 1st order CPHF.
     1 vectors were produced by pass  0.
 AX will form   1 AO Fock derivatives at one time.
     1 vectors were produced by pass  1.
     1 vectors were produced by pass  2.
     1 vectors were produced by pass  3.
     1 vectors were produced by pass  4.
     1 vectors were produced by pass  5.
     1 vectors were produced by pass  6.
     1 vectors were produced by pass  7.
     1 vectors were produced by pass  8.
     1 vectors were produced by pass  9.
     1 vectors were produced by pass 10.
     1 vectors were produced by pass 11.
 Inv2:  IOpt= 1 Iter= 1 AM= 3.13D-16 Conv= 1.00D-12.
 Inverted reduced A of dimension   12 with in-core refinement.
 End of Minotr Frequency-dependent properties file   721 does not exist.
 ***** Axes restored to original set *****
 -------------------------------------------------------------------
 Center     Atomic                   Forces (Hartrees/Bohr)
 Number     Number              X              Y              Z
 -------------------------------------------------------------------
    1          8           0.000259567   -0.000228117   -0.000047547
    2          1          -0.000209601   -0.000033076    0.000068043
    3          1          -0.000090349    0.000154995   -0.000033527
    4          8           0.000149451   -0.000145187    0.000051848
    5          1          -0.000046812    0.000100640    0.000008666
    6          1           0.000025868    0.000057954   -0.000155707
    7          8          -0.000206494    0.000092450   -0.000036759
    8          1           0.000062007    0.000117946    0.000151764
    9          1           0.000056363   -0.000117604   -0.000006781
 -------------------------------------------------------------------
 Cartesian Forces:  Max     0.000259567 RMS     0.000121988

 GradGradGradGradGradGradGradGradGradGradGradGradGradGradGradGradGradGrad
 Berny optimization.
 Internal  Forces:  Max     0.000171991 RMS     0.000070840
 Search for a local minimum.
 Step number   5 out of a maximum of  43
 All quantities printed in internal units (Hartrees-Bohrs-Radians)
 Update second derivatives using D2CorX and points  1  2  3  4  5

 Trust test= 1.27D+00 RLast= 2.72D-02 DXMaxT set to 3.99D-01
     Eigenvalues ---    0.00397   0.00669   0.00722   0.02544   0.05292
     Eigenvalues ---    0.05650   0.05840   0.06895   0.08028   0.09327
     Eigenvalues ---    0.09903   0.10783   0.15712   0.20986   0.21118
     Eigenvalues ---    0.48365   0.48507   0.51024   0.53721   0.53777
     Eigenvalues ---    0.586601000.000001000.000001000.000001000.00000
     Eigenvalues --- 1000.000001000.000001000.000001000.000001000.00000
     Eigenvalues --- 1000.000001000.000001000.00000
 RFO step:  Lambda=-1.33131419D-06.
 Quartic linear search produced a step of  0.32501.
 Iteration  1 RMS(Cart)=  0.00121802 RMS(Int)=  0.00000188
 Iteration  2 RMS(Cart)=  0.00000130 RMS(Int)=  0.00000121
 Iteration  3 RMS(Cart)=  0.00000000 RMS(Int)=  0.00000121
 Variable       Old X    -DE/DX   Delta X   Delta X   Delta X     New X
                                 (Linear)    (Quad)   (Total)
    R1        1.84771   0.00002   0.00005  -0.00004   0.00001   1.84772
    R2        1.82374  -0.00008   0.00002  -0.00017  -0.00015   1.82360
    R3        3.60589  -0.00005   0.00245  -0.00165   0.00080   3.60669
    R4        3.64630  -0.00007   0.00187  -0.00205  -0.00018   3.64612
    R5        1.82345  -0.00006   0.00005  -0.00016  -0.00011   1.82334
    R6        1.84916   0.00002   0.00003  -0.00005  -0.00002   1.84914
    R7        3.60589  -0.00004   0.00247  -0.00143   0.00104   3.60693
    R8        1.84902   0.00003   0.00003  -0.00003   0.00000   1.84902
    R9        1.82423  -0.00006   0.00004  -0.00014  -0.00011   1.82412
    A1        1.83452   0.00008   0.00084   0.00050   0.00135   1.83586
    A2        1.57045  -0.00008  -0.00095   0.00015  -0.00080   1.56965
    A3        2.18637   0.00017   0.00115   0.00171   0.00286   2.18922
    A4        2.58883   0.00008   0.00069   0.00014   0.00082   2.58965
    A5        2.27293   0.00005   0.00055   0.00059   0.00114   2.27407
    A6        1.55849  -0.00006  -0.00083   0.00009  -0.00074   1.55775
    A7        1.83551   0.00011   0.00074   0.00048   0.00122   1.83673
    A8        2.63653   0.00007   0.00079   0.00008   0.00087   2.63739
    A9        1.55075  -0.00009  -0.00099  -0.00023  -0.00121   1.54954
   A10        2.13837   0.00010   0.00107   0.00094   0.00201   2.14039
   A11        1.83068   0.00009   0.00071   0.00043   0.00114   1.83182
   A12        2.64051   0.00010   0.00086   0.00015   0.00101   2.64152
    D1       -2.46928  -0.00009  -0.00366   0.00027  -0.00340  -2.47268
    D2       -0.25747   0.00008  -0.00260   0.00222  -0.00038  -0.25786
    D3        0.05317  -0.00002  -0.00008  -0.00031  -0.00039   0.05278
    D4        1.94868   0.00006   0.00054   0.00084   0.00137   1.95006
    D5        2.19459   0.00003   0.00364  -0.00167   0.00196   2.19655
    D6        0.28505  -0.00008   0.00323  -0.00257   0.00066   0.28571
    D7       -0.06924   0.00001  -0.00137   0.00075  -0.00062  -0.06986
    D8       -2.36869  -0.00005  -0.00182  -0.00002  -0.00184  -2.37054
    D9        0.00292   0.00002   0.00064  -0.00012   0.00052   0.00344
   D10       -1.86424  -0.00004   0.00026  -0.00065  -0.00039  -1.86462
   D11        0.04249  -0.00002   0.00081  -0.00052   0.00028   0.04278
   D12        2.19691   0.00007   0.00173   0.00046   0.00219   2.19910
         Item               Value     Threshold  Converged?
 Maximum Force            0.000172     0.000450     YES
 RMS     Force            0.000071     0.000300     YES
 Maximum Displacement     0.003589     0.001800     NO 
 RMS     Displacement     0.001218     0.001200     NO 
 Predicted change in Energy=-1.055275D-06
 GradGradGradGradGradGradGradGradGradGradGradGradGradGradGradGradGradGrad

                          Input orientation:                          
 ---------------------------------------------------------------------
 Center     Atomic     Atomic              Coordinates (Angstroms)
 Number     Number      Type              X           Y           Z
 ---------------------------------------------------------------------
    1          8             0        0.006182    0.016532   -0.012452
    2          1             0        0.028894   -0.020010    0.964374
    3          1             0        0.931361    0.027479   -0.286607
    4          8             0       -0.725937   -0.709629    2.600654
    5          1             0       -0.306962   -1.180215    3.331398
    6          1             0       -1.187822   -1.398957    2.082007
    7          8             0       -1.661755   -2.199869    0.415550
    8          1             0       -1.138281   -1.510579   -0.040780
    9          1             0       -2.547455   -2.130797    0.038006
 ---------------------------------------------------------------------
                    Distance matrix (angstroms):
                    1          2          3          4          5
     1  O    0.000000
     2  H    0.977774   0.000000
     3  H    0.965006   1.543262   0.000000
     4  O    2.809205   1.929444   3.409727   0.000000
     5  H    3.565333   2.657382   4.010228   0.964872   0.000000
     6  H    2.795714   2.151975   3.483675   0.978522   1.544260
     7  O    2.806712   2.812701   3.489750   2.805574   3.373029
     8  H    1.908576   2.143462   2.590264   2.790828   3.488813
     9  H    3.336859   3.457044   4.106785   3.450335   4.095100
                    6          7          8          9
     6  H    0.000000
     7  O    1.908704   0.000000
     8  H    2.126298   0.978460   0.000000
     9  H    2.561666   0.965285   1.541639   0.000000
 Stoichiometry    H6O3
 Framework group  C1[X(H6O3)]
 Deg. of freedom    21
 Full point group                 C1
 Largest Abelian subgroup         C1      NOp   1
 Largest concise Abelian subgroup C1      NOp   1
                         Standard orientation:                         
 ---------------------------------------------------------------------
 Center     Atomic     Atomic              Coordinates (Angstroms)
 Number     Number      Type              X           Y           Z
 ---------------------------------------------------------------------
    1          8             0       -1.483020   -0.654008   -0.087244
    2          1             0       -0.611688   -1.092384   -0.019070
    3          1             0       -2.026030   -1.062918    0.597716
    4          8             0        1.310835   -0.947202   -0.093791
    5          1             0        1.981471   -1.203192    0.550952
    6          1             0        1.228061    0.023939   -0.006956
    7          8             0        0.168171    1.606870    0.111842
    8          1             0       -0.633563    1.050021    0.044551
    9          1             0        0.093857    2.239257   -0.613650
 ---------------------------------------------------------------------
 Rotational constants (GHZ):      6.8330408      6.7446937      3.4598366
 Standard basis: Aug-CC-pVDZ (5D, 7F)
 There are   123 symmetry adapted basis functions of A   symmetry.
 Integral buffers will be    131072 words long.
 Raffenetti 1 integral format.
 Two-electron integral symmetry is turned on.
   123 basis functions,   195 primitive gaussians,   129 cartesian basis functions
[...]
   9   1    -0.37  -0.16  -0.10    -0.32  -0.14  -0.09    -0.29  -0.13  -0.08
                    16                     17                     18
                     A                      A                      A
 Frequencies --  3573.7622              3631.2093              3640.6569
 Red. masses --     1.0581                 1.0562                 1.0557
 Frc consts  --     7.9622                 8.2054                 8.2445
 IR Inten    --    11.5181               487.3226               448.6587
 Atom AN      X      Y      Z        X      Y      Z        X      Y      Z
   1   8    -0.02   0.02  -0.01     0.01  -0.01   0.00    -0.04   0.03  -0.01
   2   1     0.41  -0.21   0.02    -0.14   0.07  -0.01     0.75  -0.37   0.03
   3   1    -0.07  -0.05   0.07     0.04   0.03  -0.04    -0.14  -0.08   0.14
   4   8     0.00  -0.04  -0.01     0.00  -0.04  -0.01     0.00   0.01   0.00
   5   1     0.10  -0.05   0.09     0.13  -0.07   0.11    -0.02   0.02  -0.02
   6   1    -0.05   0.62   0.04    -0.07   0.71   0.04     0.02  -0.20  -0.01
   7   8     0.03   0.02   0.01    -0.03  -0.02  -0.01    -0.02  -0.01  -0.01
   8   1    -0.48  -0.33  -0.03     0.52   0.36   0.02     0.36   0.25   0.01
   9   1     0.00   0.10  -0.10    -0.01  -0.10   0.10     0.00  -0.09   0.09
                    19                     20                     21
                     A                      A                      A
 Frequencies --  3889.0089              3892.9926              3893.7948
 Red. masses --     1.0715                 1.0717                 1.0720
 Frc consts  --     9.5483                 9.5692                 9.5764
 IR Inten    --   103.5594               113.2845                92.5791
 Atom AN      X      Y      Z        X      Y      Z        X      Y      Z
   1   8     0.00   0.00   0.00    -0.01   0.00   0.01    -0.05  -0.02   0.04
   2   1    -0.01   0.01   0.00     0.04  -0.02   0.00     0.19  -0.12   0.03
   3   1     0.01   0.01  -0.01     0.11   0.08  -0.13     0.56   0.42  -0.64
   4   8     0.00   0.00   0.00    -0.04   0.03  -0.04     0.01  -0.01   0.01
   5   1     0.01   0.00   0.01     0.67  -0.27   0.62    -0.14   0.06  -0.13
   6   1     0.00   0.00   0.00     0.00  -0.22  -0.04     0.00   0.03   0.01
   7   8     0.01   0.05  -0.04     0.00   0.00   0.00     0.00   0.00   0.00
   8   1    -0.19  -0.11  -0.03    -0.01  -0.01   0.00     0.00   0.00   0.00
   9   1     0.07  -0.66   0.71     0.00   0.01  -0.02     0.00   0.01  -0.01

 -------------------
 - Thermochemistry -
 -------------------
 Temperature   298.150 Kelvin.  Pressure   1.00000 Atm.
 Atom  1 has atomic number  8 and mass  15.99491
 Atom  2 has atomic number  1 and mass   1.00783
 Atom  3 has atomic number  1 and mass   1.00783
 Atom  4 has atomic number  8 and mass  15.99491
 Atom  5 has atomic number  1 and mass   1.00783
 Atom  6 has atomic number  1 and mass   1.00783
 Atom  7 has atomic number  8 and mass  15.99491
 Atom  8 has atomic number  1 and mass   1.00783
 Atom  9 has atomic number  1 and mass   1.00783
 Molecular mass:    54.03169 amu.
 Principal axes and moments of inertia in atomic units:
                           1         2         3
     EIGENVALUES --   263.62935 266.87513 520.83551
           X            0.99934   0.03624  -0.00240
           Y           -0.03631   0.99870  -0.03576
           Z            0.00110   0.03583   0.99936
 This molecule is an asymmetric top.
 Rotational symmetry number  1.
 Rotational temperatures (Kelvin)      0.32854     0.32455     0.16630
 Rotational constants (GHZ):           6.84575     6.76249     3.46509
 Zero-point vibrational energy     190438.3 (Joules/Mol)
                                   45.51584 (Kcal/Mol)
 Warning -- explicit consideration of  10 degrees of freedom as
           vibrations may cause significant error
 Vibrational temperatures:    233.15   249.93   265.24   279.03   311.95
          (Kelvin)            339.15   490.60   506.77   634.45   818.06
                              957.06  1235.21  2346.85  2351.76  2386.39
                             5141.84  5224.49  5238.09  5595.41  5601.14
                             5602.30
 
 Zero-point correction=                           0.072534 (Hartree/Particle)
 Thermal correction to Energy=                    0.080169
 Thermal correction to Enthalpy=                  0.081113
 Thermal correction to Gibbs Free Energy=         0.042896
 Sum of electronic and zero-point Energies=           -228.736266
 Sum of electronic and thermal Energies=              -228.728631
 Sum of electronic and thermal Enthalpies=            -228.727687
 Sum of electronic and thermal Free Energies=         -228.765904
 
                     E (Thermal)             CV                S
                      KCal/Mol        Cal/Mol-Kelvin    Cal/Mol-Kelvin
 Total                   50.307             24.273             80.435
 Electronic               0.000              0.000              0.000
 Translational            0.889              2.981             37.883
 Rotational               0.889              2.981             25.108
 Vibrational             48.529             18.312             17.443
 Vibration  1             0.622              1.889              2.526
 Vibration  2             0.627              1.875              2.395
 Vibration  3             0.631              1.861              2.284
 Vibration  4             0.635              1.848              2.190
 Vibration  5             0.646              1.815              1.986
 Vibration  6             0.655              1.786              1.835
 Vibration  7             0.721              1.594              1.208
 Vibration  8             0.729              1.571              1.156
 Vibration  9             0.801              1.381              0.824
 Vibration 10             0.925              1.099              0.507
                       Q            Log10(Q)             Ln(Q)
 Total Bot       0.185934D-19        -19.730642        -45.431483
 Total V=0       0.429203D+14         13.632662         31.390365
 Vib (Bot)       0.173813D-31        -31.759918        -73.129913
 Vib (Bot)  1    0.124677D+01          0.095786          0.220555
 Vib (Bot)  2    0.115872D+01          0.063980          0.147318
 Vib (Bot)  3    0.108783D+01          0.036562          0.084186
 Vib (Bot)  4    0.103051D+01          0.013051          0.030052
 Vib (Bot)  5    0.913509D+00         -0.039287         -0.090462
 Vib (Bot)  6    0.833440D+00         -0.079126         -0.182194
 Vib (Bot)  7    0.544216D+00         -0.264229         -0.608409
 Vib (Bot)  8    0.523059D+00         -0.281449         -0.648061
 Vib (Bot)  9    0.391731D+00         -0.407012         -0.937180
 Vib (Bot) 10    0.271065D+00         -0.566927         -1.305397
 Vib (V=0)       0.401224D+02          1.603387          3.691934
 Vib (V=0)  1    0.184329D+01          0.265594          0.611553
 Vib (V=0)  2    0.176200D+01          0.246005          0.566448
 Vib (V=0)  3    0.169724D+01          0.229743          0.529002
 Vib (V=0)  4    0.164540D+01          0.216272          0.497985
 Vib (V=0)  5    0.154139D+01          0.187913          0.432686
 Vib (V=0)  6    0.147192D+01          0.167883          0.386565
 Vib (V=0)  7    0.123903D+01          0.093083          0.214332
 Vib (V=0)  8    0.122360D+01          0.087638          0.201794
 Vib (V=0)  9    0.113518D+01          0.055065          0.126791
 Vib (V=0) 10    0.106875D+01          0.028876          0.066489
 Electronic      0.100000D+01          0.000000          0.000000
 Translational   0.156109D+08          7.193428         16.563480
 Rotational      0.685248D+05          4.835848         11.134951
 ***** Axes restored to original set *****
 -------------------------------------------------------------------
 Center     Atomic                   Forces (Hartrees/Bohr)
 Number     Number              X              Y              Z
 -------------------------------------------------------------------
    1          8           0.000126839   -0.000024305    0.000062264
    2          1          -0.000002138    0.000010363   -0.000043022
    3          1          -0.000108646    0.000007718    0.000023015
    4          8          -0.000021777   -0.000119915    0.000032300
    5          1          -0.000024139    0.000064385   -0.000085262
    6          1           0.000049580    0.000072430    0.000012635
    7          8          -0.000048170    0.000049787   -0.000074906
    8          1          -0.000056030   -0.000055197    0.000021488
    9          1           0.000084481   -0.000005265    0.000051486
 -------------------------------------------------------------------
 Cartesian Forces:  Max     0.000126839 RMS     0.000060106

 GradGradGradGradGradGradGradGradGradGradGradGradGradGradGradGradGradGrad
 Berny optimization.
 Internal  Forces:  Max     0.000110218 RMS     0.000041098
 Search for a local minimum.
 Step number   1 out of a maximum of   2
 All quantities printed in internal units (Hartrees-Bohrs-Radians)
 Second derivative matrix not updated -- analytic derivatives used.
     Eigenvalues ---    0.00053   0.00063   0.00111   0.00265   0.00375
     Eigenvalues ---    0.00471   0.00718   0.00768   0.00983   0.01859
     Eigenvalues ---    0.01882   0.02143   0.07510   0.07794   0.08027
     Eigenvalues ---    0.46077   0.46277   0.48647   0.54116   0.54190
     Eigenvalues ---    0.542521000.000001000.000001000.000001000.00000
     Eigenvalues --- 1000.000001000.000001000.000001000.000001000.00000
     Eigenvalues --- 1000.000001000.000001000.00000
 Angle between quadratic step and forces=  78.91 degrees.
 Linear search not attempted -- first point.
 Iteration  1 RMS(Cart)=  0.00332537 RMS(Int)=  0.00001604
 Iteration  2 RMS(Cart)=  0.00001398 RMS(Int)=  0.00000694
 Iteration  3 RMS(Cart)=  0.00000000 RMS(Int)=  0.00000694
 Variable       Old X    -DE/DX   Delta X   Delta X   Delta X     New X
                                 (Linear)    (Quad)   (Total)
    R1        1.84789  -0.00007   0.00000  -0.00009  -0.00008   1.84780
    R2        1.82348  -0.00011   0.00000  -0.00028  -0.00028   1.82320
    R3        3.59794   0.00002   0.00000   0.00239   0.00239   3.60033
    R4        3.63848  -0.00003   0.00000  -0.00218  -0.00218   3.63630
    R5        1.82341  -0.00011   0.00000  -0.00017  -0.00017   1.82324
    R6        1.84928  -0.00008   0.00000  -0.00008  -0.00008   1.84920
    R7        3.60239  -0.00001   0.00000  -0.00170  -0.00170   3.60069
    R8        1.84904  -0.00007   0.00000  -0.00027  -0.00027   1.84876
    R9        1.82410  -0.00010   0.00000  -0.00017  -0.00017   1.82393
    A1        1.83676   0.00001   0.00000   0.00069   0.00067   1.83743
    A2        1.57170   0.00002   0.00000   0.00154   0.00153   1.57323
    A3        2.22722   0.00001   0.00000   0.00866   0.00865   2.23587
    A4        2.58923  -0.00001   0.00000  -0.00055  -0.00055   2.58869
    A5        2.28439  -0.00002   0.00000  -0.00682  -0.00683   2.27756
    A6        1.55907  -0.00001   0.00000  -0.00173  -0.00174   1.55733
    A7        1.83641   0.00002   0.00000  -0.00006  -0.00008   1.83633
    A8        2.63559   0.00003   0.00000   0.00330   0.00330   2.63888
    A9        1.55163  -0.00001   0.00000   0.00054   0.00054   1.55217
   A10        2.16080  -0.00001   0.00000  -0.00351  -0.00351   2.15729
   A11        1.83210   0.00001   0.00000   0.00002   0.00002   1.83212
   A12        2.63942  -0.00002   0.00000  -0.00311  -0.00311   2.63631
    D1       -2.51138  -0.00001   0.00000  -0.01004  -0.01004  -2.52142
    D2       -0.25545   0.00001   0.00000  -0.00017  -0.00016  -0.25562
    D3        0.06822  -0.00001   0.00000   0.00167   0.00166   0.06988
    D4        1.97796   0.00001   0.00000   0.00618   0.00619   1.98416
    D5        2.18982   0.00001   0.00000  -0.00344  -0.00343   2.18640
    D6        0.27520  -0.00001   0.00000   0.00027   0.00026   0.27546
    D7       -0.05535  -0.00001   0.00000  -0.00174  -0.00173  -0.05708
    D8       -2.36737   0.00001   0.00000   0.00615   0.00615  -2.36123
    D9       -0.00500   0.00001   0.00000   0.00227   0.00228  -0.00273
   D10       -1.87853   0.00000   0.00000   0.00254   0.00254  -1.87599
   D11        0.02855   0.00001   0.00000  -0.00191  -0.00190   0.02665
   D12        2.20694   0.00000   0.00000  -0.00542  -0.00541   2.20153
         Item               Value     Threshold  Converged?
 Maximum Force            0.000110     0.000450     YES
 RMS     Force            0.000041     0.000300     YES
 Maximum Displacement     0.010348     0.001800     NO 
 RMS     Displacement     0.003325     0.001200     NO 
 Predicted change in Energy=-4.615144D-07
 GradGradGradGradGradGradGradGradGradGradGradGradGradGradGradGradGradGrad

 1\1\GINC-POLARIS-C01\Freq\RMP2-FC\Aug-CC-pVDZ\H6O3\G060005\13-Apr-2005
 \0\\#N Geom=AllCheck Guess=Read SCRF=Check GenChk RMP2(FC)/Aug-CC-pVDZ
  Freq\\Title Card Required\\0,1\O,0.0088375357,0.0041573589,-0.0138873
 94\H,0.0329381861,-0.0282479622,0.963137168\H,0.9326385715,0.048966636
 3,-0.2890293247\O,-0.7192016924,-0.7090554308,2.5995811194\H,-0.309624
 0391,-1.1819561704,3.3341945037\H,-1.1910318208,-1.3941809092,2.084184
 0949\O,-1.6692838129,-2.1962901565,0.4222912104\H,-1.1382637626,-1.515
 2530554,-0.0377143383\H,-2.5487838276,-2.1341841854,0.0293929943\\Vers
 ion=AM64L-G03RevD.01\State=1-A\HF=-228.1393533\MP2=-228.8088\RMSD=7.76
 6e-10\RMSF=6.011e-05\ZeroPoint=0.0725341\Thermal=0.0801687\Dipole=0.33
 50262,-0.2438712,0.0317894\DipoleDeriv=-0.4827445,-0.1251511,0.0878047
 ,-0.1418915,-0.7277948,0.0516914,0.1349944,0.0662455,-0.6774142,0.2461
 191,0.0505443,-0.1323954,0.0587992,0.3269611,-0.0923585,-0.1520477,-0.
 1039531,0.5540069,0.1638284,-0.0067957,-0.0148182,-0.0057604,0.3087663
 ,-0.0065875,-0.0353641,-0.0143377,0.287628,-0.6208345,-0.0780153,0.030
 7064,-0.0869492,-0.4525621,-0.1074998,0.0401451,-0.0579559,-0.8328764,
 0.2889083,0.0100412,-0.0193037,0.0178117,0.204061,0.0731427,-0.0284172
 ,0.053052,0.2629715,0.3274005,0.0732234,0.1154897,0.0796311,0.2604892,
 0.1658985,0.1103883,0.139604,0.559901,-0.5928108,-0.1680592,0.0134456,
 -0.192414,-0.6571835,-0.1618996,0.0347431,-0.132032,-0.654631,0.436167
 4,0.2172957,-0.0367707,0.2294214,0.451263,0.0305226,-0.0485364,0.01416
 02,0.2596288,0.2339662,0.0269167,-0.0441586,0.0413517,0.2859998,0.0470
 904,-0.0559054,0.0352171,0.2407854\Polar=28.6230072,2.6330062,27.43216
 28,0.1326937,-0.1486929,30.66554\PG=C01 [X(H6O3)]\NImag=0\\0.54064054,
 0.03340613,0.02018361,-0.11955889,-0.02334164,0.56534337,-0.05057194,-
 0.00245114,-0.04676904,0.05931637,-0.00318450,-0.00988923,0.01260727,0
 .00500762,0.01558987,0.01035861,0.01377397,-0.46846891,0.00369519,-0.0
 0885059,0.47618130,-0.48662550,-0.02684134,0.15964489,-0.00332868,0.00
 028583,-0.01077515,0.49054691,-0.02331521,-0.00315278,0.00599795,-0.00
 127149,-0.00072442,-0.00009573,0.02567603,0.00324538,0.10112664,0.0041
 0030,-0.08182227,0.04742819,0.00173323,-0.00937559,-0.14821528,-0.0075
 2899,0.09299215,0.00332472,-0.00134941,0.00342195,-0.00685553,0.001990
 23,-0.00045191,0.00062205,0.00038197,-0.00094681,0.22434059,-0.0010309
 7,0.00186352,0.00538524,0.00017869,-0.00166141,-0.00366493,0.00025416,
 -0.00031823,0.00065245,0.05844958,0.42051165,0.00519901,0.00505794,-0.
 01081107,-0.00277587,-0.00519075,0.00078190,-0.00079876,0.00014508,-0.
 00173087,0.29721197,-0.03289397,0.47700198,-0.00123915,-0.00034128,0.0
 0265632,0.00241593,0.00085174,-0.00283691,0.00003417,-0.00016260,0.000
 61604,-0.10328454,0.07741575,-0.17011246,0.11057328,-0.00065935,0.0002
 1175,0.00014706,0.00153542,-0.00073197,-0.00072372,0.00012625,0.000170
 79,0.00027027,0.10926897,-0.15852818,0.21065148,-0.09378881,0.14853568
 ,0.00109405,-0.00027491,0.00010190,-0.00165966,0.00010970,-0.00042177,
 -0.00008944,0.00033017,-0.00053969,-0.17775405,0.16206583,-0.30961339,
 0.18591276,-0.18240250,0.32731860,-0.00024026,0.00079934,-0.00206600,-
 0.00160970,-0.00430374,0.00267052,-0.00029917,-0.00012158,-0.00012810,
 -0.11723454,-0.13118352,-0.12332292,-0.00843049,-0.01584209,-0.0072083
 4,0.13139125,0.00033439,-0.00055810,-0.00171744,-0.00303488,-0.0024513
 6,0.00224529,-0.00003507,0.00012598,-0.00019395,-0.16447047,-0.2605830
 5,-0.17111290,0.01672720,0.01197485,0.02094271,0.14846648,0.25331986,-
 0.00210548,-0.00221699,-0.00201043,0.00218068,0.00274137,0.00437264,-0
 .00006413,-0.00021405,0.00008163,-0.11492170,-0.12487003,-0.14754357,-
 0.01578701,-0.02633910,-0.01656801,0.12546397,0.14570661,0.16296863,-0
 .00597927,-0.00927372,0.00084301,-0.00039381,0.00123628,0.00193451,0.0
 0076538,-0.00115680,-0.00071289,0.00106801,-0.00376121,-0.00692673,-0.
 00009032,-0.00048822,-0.00018087,-0.00612371,0.00138576,0.00444181,0.6
 1270509,-0.00939410,-0.00402328,0.00257582,0.00085713,0.00029757,0.001
 20011,0.00002230,-0.00239131,-0.00154105,-0.00255812,0.00132128,-0.006
 37340,-0.00064189,-0.00131351,-0.00069631,0.00104652,-0.00518632,0.003
 19795,0.15132605,0.26954625,0.00140383,0.00077502,0.00403380,0.0019408
 1,0.00178400,-0.00286065,-0.00034372,0.00012324,0.00047997,-0.00725844
 ,-0.00514219,-0.00857220,-0.00045489,-0.00180703,-0.00040643,0.0054066
 3,-0.00003607,0.00314921,0.08765910,-0.18746845,0.24095806,0.00063642,
 0.00651723,0.00153387,0.00114803,-0.00194322,-0.00461629,-0.00186437,0
 .00005597,0.00082501,-0.00283129,-0.00147773,0.00012399,-0.00009725,-0
 .00016133,-0.00018353,0.00370202,0.00163012,0.00288439,-0.16258221,-0.
 14142858,0.07870251,0.18357770,0.00457341,-0.00293718,-0.00190964,-0.0
 0073847,-0.00081110,-0.00408502,0.00046785,0.00336884,0.00235006,-0.00
 163623,-0.00221057,0.00053067,-0.00013219,-0.00012167,0.00020193,0.001
 95239,0.00313634,0.00114961,-0.18159047,-0.23415283,0.15185482,0.16689
 009,0.23162205,0.00182233,0.00094397,-0.00618707,-0.00388215,-0.004993
 37,-0.00000987,0.00059936,0.00118969,-0.00018566,0.00044625,0.00002855
 ,0.00220006,0.00002162,0.00035738,0.00015708,0.00160363,0.00203185,-0.
 00673397,0.11796701,0.16521258,-0.12917981,-0.10093300,-0.15136573,0.1
 3374266,0.00005443,-0.00046582,0.00029388,-0.00012067,0.00005975,0.000
 02143,0.00014920,-0.00008629,0.00000718,0.00085051,0.00115526,0.001401
 78,0.00011837,0.00000917,0.00006909,-0.00115540,-0.00100352,-0.0020925
 2,-0.43936918,0.00077068,-0.16705584,-0.02168905,0.01021361,-0.0176450
 5,0.46116179,-0.00072980,-0.00169832,0.00025537,-0.00008290,0.00038204
 ,0.00020062,0.00004398,-0.00032427,0.00015768,-0.00007651,-0.00039501,
 -0.00081416,0.00007207,-0.00019775,-0.00027663,-0.00081379,0.00022180,
 0.00084463,0.04232233,-0.02409785,0.03991666,-0.03008254,0.00210612,-0
 .01340491,-0.01065285,0.02400324,0.00065991,0.00118233,-0.00017932,-0.
 00015815,0.00005913,-0.00019905,0.00004223,0.00005264,0.00010032,0.000
 25273,-0.00156096,-0.00171284,-0.00001547,-0.00015382,-0.00002830,-0.0
 0241940,0.00213389,0.00228387,-0.20502495,0.02389275,-0.10760194,0.021
 66305,0.00127330,0.00619658,0.18500005,-0.02687927,0.10114069\\-0.0001
 2684,0.00002431,-0.00006226,0.00000214,-0.00001036,0.00004302,0.000108
 65,-0.00000772,-0.00002302,0.00002178,0.00011991,-0.00003230,0.0000241
 4,-0.00006438,0.00008526,-0.00004958,-0.00007243,-0.00001263,0.0000481
 7,-0.00004979,0.00007491,0.00005603,0.00005520,-0.00002149,-0.00008448
 ,0.00000526,-0.00005149\\\@


 BUT 'GLORY' DOESN'T MEAN 'A NICE KNOCK DOWN ARGUMENT', ALICE OBJECTED.
 WHEN I USE A WORD, HUMPTY DUMPTY SAID, IN A RATHER SCORNFUL TONE,
 IT MEANS JUST WHAT I CHOOSE IT TO MEAN....
 NEITHER MORE NOR LESS....
 THE QUESTION IS, SAID ALICE,
 WHETHER YOU CAN MAKE WORDS MEAN SO MANY DIFFERENT THINGS...
 THE QUESTION IS, SAID HUMPTY DUMPTY,
 WHICH IS TO BE MASTER....
 THAT IS ALL.....

 ALICE THROUGH THE LOOKING GLASS
 Job cpu time:  0 days  0 hours 23 minutes 33.8 seconds.
 File lengths (MBytes):  RWF=   1182 Int=      0 D2E=      0 Chk=     11 Scr=      1
 Normal termination of Gaussian 03 at Wed Apr 13 20:20:58 2005.
