 Entering Gaussian System, Link 0=g03
 Initial command:
 /usr/local/g03-em64t/g03/l1.exe /usr/scratch/NQCaaa-bbb4/Gau-20140.inp -scrdir=/usr/scratch/NQCaaa-bbb4/
 Entering Link 1 = /usr/local/g03-em64t/g03/l1.exe PID=     20141.
  
 Copyright (c) 1988,1990,1992,1993,1995,1998,2003,2004, Gaussian, Inc.
                  All Rights Reserved.
  
 This is the Gaussian(R) 03 program.  It is based on the
 the Gaussian(R) 98 system (copyright 1998, Gaussian, Inc.),
 the Gaussian(R) 94 system (copyright 1995, Gaussian, Inc.),
 the Gaussian 92(TM) system (copyright 1992, Gaussian, Inc.),
 the Gaussian 90(TM) system (copyright 1990, Gaussian, Inc.),
 the Gaussian 88(TM) system (copyright 1988, Gaussian, Inc.),
 the Gaussian 86(TM) system (copyright 1986, Carnegie Mellon
 University), and the Gaussian 82(TM) system (copyright 1983,
 Carnegie Mellon University). Gaussian is a federally registered
 trademark of Gaussian, Inc.
  
 This software contains proprietary and confidential information,
 including trade secrets, belonging to Gaussian, Inc.
  
 This software is provided under written license and may be
 used, copied, transmitted, or stored only in accord with that
 written license.
  
 The following legend is applicable only to US Government
 contracts under FAR:
  
                    RESTRICTED RIGHTS LEGEND
  
 Use, reproduction and disclosure by the US Government is
 subject to restrictions as set forth in subparagraphs (a)
 and (c) of the Commercial Computer Software - Restricted
 Rights clause in FAR 52.227-19.
  
 Gaussian, Inc.
 340 Quinnipiac St., Bldg. 40, Wallingford CT 06492
  
  
 ---------------------------------------------------------------
 Warning -- This program may not be used in any manner that
 competes with the business of Gaussian, Inc. or will provide
 assistance to any competitor of Gaussian, Inc.  The licensee
 of this program is prohibited from giving any competitor of
 Gaussian, Inc. access to this program.  By using this program,
 the user acknowledges that Gaussian, Inc. is engaged in the
 business of creating and licensing software in the field of
 computational chemistry and represents and warrants to the
 licensee that it is not a competitor of Gaussian, Inc. and that
 it will not use this program in any manner prohibited above.
 ---------------------------------------------------------------
  

 Cite this work as:
 Gaussian 03, Revision D.01,
 M. J. Frisch, G. W. Trucks, H. B. Schlegel, G. E. Scuseria, 
 M. A. Robb, J. R. Cheeseman, J. A. Montgomery, Jr., T. Vreven, 
 K. N. Kudin, J. C. Burant, J. M. Millam, S. S. Iyengar, J. Tomasi, 
 V. Barone, B. Mennucci, M. Cossi, G. Scalmani, N. Rega, 
 G. A. Petersson, H. Nakatsuji, M. Hada, M. Ehara, K. Toyota, 
 R. Fukuda, J. Hasegawa, M. Ishida, T. Nakajima, Y. Honda, O. Kitao, 
 H. Nakai, M. Klene, X. Li, J. E. Knox, H. P. Hratchian, J. B. Cross, 
 V. Bakken, C. Adamo, J. Jaramillo, R. Gomperts, R. E. Stratmann, 
 O. Yazyev, A. J. Austin, R. Cammi, C. Pomelli, J. W. Ochterski, 
 P. Y. Ayala, K. Morokuma, G. A. Voth, P. Salvador, J. J. Dannenberg, 
 V. G. Zakrzewski, S. Dapprich, A. D. Daniels, M. C. Strain, 
 O. Farkas, D. K. Malick, A. D. Rabuck, K. Raghavachari, 
 J. B. Foresman, J. V. Ortiz, Q. Cui, A. G. Baboul, S. Clifford, 
 J. Cioslowski, B. B. Stefanov, G. Liu, A. Liashenko, P. Piskorz, 
 I. Komaromi, R. L. Martin, D. J. Fox, T. Keith, M. A. Al-Laham, 
 C. Y. Peng, A. Nanayakkara, M. Challacombe, P. M. W. Gill, 
 B. Johnson, W. Chen, M. W. Wong, C. Gonzalez, and J. A. Pople, 
 Gaussian, Inc., Wallingford CT, 2004.
 
 ******************************************
 Gaussian 03:  AM64L-G03RevD.01 13-Oct-2005
                13-Apr-2005 
 ******************************************
 %chk=W4.chk
 %mem=64MW
 %nproc=2
 Will use up to    2 processors via shared memory.
 --------------------------
 # opt freq MP2/aug-cc-pvDZ
 --------------------------
 1/18=20,38=1/1,3;
 2/9=110,17=6,18=5,40=1/2;
 3/5=16,7=10,11=9,16=1,25=1,30=1/1,2,3;
 4//1;
 5/5=2,38=5/2;
 8/6=4,10=1/1;
 9/15=2,16=-3/6;
 10/5=1/2;
 6/7=2,8=2,9=2,10=2/1;
 7/12=2/1,2,3,16;
 1/18=20/3(3);
 2/9=110/2;
 6/7=2,8=2,9=2,10=2/1;
 99//99;
 2/9=110/2;
 3/5=16,7=10,11=9,16=1,25=1,30=1/1,2,3;
 4/5=5,16=3/1;
 5/5=2,38=5/2;
 8/6=4,10=1/1;
 9/15=2,16=-3/6;
 10/5=1/2;
 7/12=2/1,2,3,16;
 1/18=20/3(-8);
 2/9=110/2;
 6/7=2,8=2,9=2,10=2/1;
 99//99;
 -------------------
 Title Card Required
 -------------------
 Symbolic Z-matrix:
 Charge =  0 Multiplicity = 1
 O                    -1.38241  -1.36944  -0.00182 
 H                    -0.40744  -1.50919   0.00683 
 H                    -1.69785  -1.86673  -0.76652 
 O                    -1.36944   1.38241   0.00182 
 H                    -1.50919   0.40744  -0.00683 
 H                    -1.86673   1.69785   0.76652 
 O                     1.38241   1.36944  -0.00182 
 H                     0.40744   1.50919   0.00683 
 H                     1.69785   1.86673  -0.76652 
 O                     1.36944  -1.38241   0.00182 
 H                     1.50919  -0.40744  -0.00683 
 H                     1.86673  -1.69785   0.76652 
 

 GradGradGradGradGradGradGradGradGradGradGradGradGradGradGradGradGradGrad
 Berny optimization.
 Initialization pass.
                           ----------------------------
                           !    Initial Parameters    !
                           ! (Angstroms and Degrees)  !
 --------------------------                            --------------------------
 ! Name  Definition              Value          Derivative Info.                !
 --------------------------------------------------------------------------------
 ! R1    R(1,2)                  0.985          estimate D2E/DX2                !
 ! R2    R(1,3)                  0.9652         estimate D2E/DX2                !
 ! R3    R(1,5)                  1.7814         estimate D2E/DX2                !
 ! R4    R(2,10)                 1.7814         estimate D2E/DX2                !
 ! R5    R(4,5)                  0.985          estimate D2E/DX2                !
 ! R6    R(4,6)                  0.9652         estimate D2E/DX2                !
 ! R7    R(4,8)                  1.7814         estimate D2E/DX2                !
 ! R8    R(7,8)                  0.985          estimate D2E/DX2                !
 ! R9    R(7,9)                  0.9652         estimate D2E/DX2                !
 ! R10   R(7,11)                 1.7814         estimate D2E/DX2                !
 ! R11   R(10,11)                0.985          estimate D2E/DX2                !
 ! R12   R(10,12)                0.9652         estimate D2E/DX2                !
 ! A1    A(2,1,3)              104.9135         estimate D2E/DX2                !
 ! A2    A(2,1,5)              102.2397         estimate D2E/DX2                !
 ! A3    A(3,1,5)              119.2381         estimate D2E/DX2                !
 ! A4    A(1,2,10)             167.7433         estimate D2E/DX2                !
 ! A5    A(5,4,6)              104.9135         estimate D2E/DX2                !
 ! A6    A(5,4,8)              102.2397         estimate D2E/DX2                !
 ! A7    A(6,4,8)              119.2381         estimate D2E/DX2                !
 ! A8    A(1,5,4)              167.7433         estimate D2E/DX2                !
 ! A9    A(8,7,9)              104.9135         estimate D2E/DX2                !
 ! A10   A(8,7,11)             102.2397         estimate D2E/DX2                !
 ! A11   A(9,7,11)             119.2381         estimate D2E/DX2                !
 ! A12   A(4,8,7)              167.7433         estimate D2E/DX2                !
 ! A13   A(2,10,11)            102.2397         estimate D2E/DX2                !
 ! A14   A(2,10,12)            119.2381         estimate D2E/DX2                !
 ! A15   A(11,10,12)           104.9135         estimate D2E/DX2                !
 ! A16   A(7,11,10)            167.7433         estimate D2E/DX2                !
 ! D1    D(3,1,2,10)           122.0777         estimate D2E/DX2                !
 ! D2    D(5,1,2,10)            -3.0219         estimate D2E/DX2                !
 ! D3    D(2,1,5,4)             -2.6341         estimate D2E/DX2                !
 ! D4    D(3,1,5,4)           -117.6725         estimate D2E/DX2                !
 ! D5    D(1,2,10,11)            2.6341         estimate D2E/DX2                !
 ! D6    D(1,2,10,12)          117.6725         estimate D2E/DX2                !
 ! D7    D(6,4,5,1)           -122.0777         estimate D2E/DX2                !
 ! D8    D(8,4,5,1)              3.0219         estimate D2E/DX2                !
 ! D9    D(5,4,8,7)              2.6341         estimate D2E/DX2                !
 ! D10   D(6,4,8,7)            117.6725         estimate D2E/DX2                !
 ! D11   D(9,7,8,4)            122.0777         estimate D2E/DX2                !
 ! D12   D(11,7,8,4)            -3.0219         estimate D2E/DX2                !
 ! D13   D(8,7,11,10)           -2.6341         estimate D2E/DX2                !
 ! D14   D(9,7,11,10)         -117.6725         estimate D2E/DX2                !
 ! D15   D(2,10,11,7)            3.0219         estimate D2E/DX2                !
 ! D16   D(12,10,11,7)        -122.0777         estimate D2E/DX2                !
 --------------------------------------------------------------------------------
 Trust Radius=3.00D-01 FncErr=1.00D-07 GrdErr=1.00D-07
 Number of steps in this run=  54 maximum allowed number of steps= 100.
 GradGradGradGradGradGradGradGradGradGradGradGradGradGradGradGradGradGrad

                          Input orientation:                          
 ---------------------------------------------------------------------
 Center     Atomic     Atomic              Coordinates (Angstroms)
 Number     Number      Type              X           Y           Z
 ---------------------------------------------------------------------
    1          8             0       -1.382405   -1.369436   -0.001823
    2          1             0       -0.407437   -1.509192    0.006831
    3          1             0       -1.697848   -1.866729   -0.766516
    4          8             0       -1.369436    1.382405    0.001823
    5          1             0       -1.509192    0.407437   -0.006831
    6          1             0       -1.866729    1.697848    0.766516
    7          8             0        1.382405    1.369436   -0.001823
    8          1             0        0.407437    1.509192    0.006831
    9          1             0        1.697848    1.866729   -0.766516
   10          8             0        1.369436   -1.382405    0.001823
   11          1             0        1.509192   -0.407437   -0.006831
   12          1             0        1.866729   -1.697848    0.766516
 ---------------------------------------------------------------------
                    Distance matrix (angstroms):
                    1          2          3          4          5
     1  O    0.000000
     2  H    0.984972   0.000000
     3  H    0.965174   1.546305   0.000000
     4  O    2.751874   3.047425   3.354858   0.000000
     5  H    1.781398   2.210773   2.405108   0.984972   0.000000
     6  H    3.198929   3.604408   3.883931   0.965174   1.546305
     7  O    3.891734   3.389706   4.532712   2.751874   3.047425
     8  H    3.389706   3.126446   4.053040   1.781398   2.210773
     9  H    4.532712   4.053040   5.046728   3.198929   3.604408
    10  O    2.751874   1.781398   3.198929   3.891734   3.389706
    11  H    3.047425   2.210773   3.604408   3.389706   3.126446
    12  H    3.354858   2.405108   3.883931   4.532712   4.053040
                    6          7          8          9         10
     6  H    0.000000
     7  O    3.354858   0.000000
     8  H    2.405108   0.984972   0.000000
     9  H    3.883931   0.965174   1.546305   0.000000
    10  O    4.532712   2.751874   3.047425   3.354858   0.000000
    11  H    4.053040   1.781398   2.210773   2.405108   0.984972
    12  H    5.046728   3.198929   3.604408   3.883931   0.965174
                   11         12
    11  H    0.000000
    12  H    1.546305   0.000000
 Stoichiometry    H8O4
 Framework group  S4[X(H8O4)]
 Deg. of freedom     8
 Full point group                 S4
 Largest Abelian subgroup         C2      NOp   2
 Largest concise Abelian subgroup C2      NOp   2
                         Standard orientation:                         
 ---------------------------------------------------------------------
 Center     Atomic     Atomic              Coordinates (Angstroms)
 Number     Number      Type              X           Y           Z
 ---------------------------------------------------------------------
    1          8             0       -1.375936    1.375936    0.001823
    2          1             0       -0.400320    1.511095   -0.006831
    3          1             0       -1.689032    1.874710    0.766516
    4          8             0       -1.375936   -1.375936   -0.001823
    5          1             0       -1.511095   -0.400320    0.006831
    6          1             0       -1.874710   -1.689032   -0.766516
    7          8             0        1.375936   -1.375936    0.001823
    8          1             0        0.400320   -1.511095   -0.006831
    9          1             0        1.689032   -1.874710    0.766516
   10          8             0        1.375936    1.375936   -0.001823
   11          1             0        1.511095    0.400320    0.006831
   12          1             0        1.874710    1.689032   -0.766516
 ---------------------------------------------------------------------
 Rotational constants (GHZ):      3.5777734      3.5777734      1.8193997
 Standard basis: Aug-CC-pVDZ (5D, 7F)
 There are    82 symmetry adapted basis functions of A   symmetry.
 There are    82 symmetry adapted basis functions of B   symmetry.
 Integral buffers will be    131072 words long.
 Raffenetti 1 integral format.
 Two-electron integral symmetry is turned on.
   164 basis functions,   260 primitive gaussians,   172 cartesian basis functions
    20 alpha electrons       20 beta electrons
       nuclear repulsion energy       140.9137711922 Hartrees.
 NAtoms=   12 NActive=   12 NUniq=    3 SFac= 3.00D+00 NAtFMM=   80 NAOKFM=F Big=F
 One-electron integrals computed using PRISM.
 NBasis=   164 RedAO= T  NBF=    82    82
 NBsUse=   164 1.00D-06 NBFU=    82    82
 Harris functional with IExCor=  205 diagonalized for initial guess.
 ExpMin= 2.97D-02 ExpMax= 1.17D+04 ExpMxC= 4.01D+02 IAcc=3 IRadAn=         5 AccDes= 0.00D+00
 HarFok:  IExCor= 205 AccDes= 0.00D+00 IRadAn=         5 IDoV=1
 ScaDFX=  1.000000  1.000000  1.000000  1.000000
 Initial guess orbital symmetries:
       Occupied  (B) (E) (E) (A) (A) (E) (E) (B) (A) (E) (E) (B)
                 (B) (E) (E) (A) (A) (E) (E) (B)
       Virtual   (A) (E) (E) (B) (B) (A) (E) (E) (B) (A) (E) (E)
                 (A) (B) (E) (E) (A) (B) (E) (E) (B) (E) (E) (A)
                 (A) (E) (E) (B) (A) (E) (E) (B) (A) (A) (E) (E)
                 (B) (E) (E) (B) (A) (B) (E) (E) (E) (E) (B) (A)
                 (E) (E) (B) (A) (A) (E) (E) (B) (A) (B) (E) (E)
                 (A) (B) (E) (E) (B) (E) (E) (A) (B) (E) (E) (E)
                 (E) (A) (A) (B) (E) (E) (B) (A) (B) (A) (E) (E)
                 (A) (B) (E) (E) (A) (E) (E) (B) (B) (E) (E) (A)
                 (B) (E) (E) (A) (B) (E) (E) (A) (B) (A) (E) (E)
                 (E) (E) (B) (A) (B) (A) (E) (E) (B) (E) (E) (A)
                 (B) (E) (E) (A) (B) (E) (E) (A) (A) (E) (E) (B)
                 (A) (B) (E) (E) (E) (E) (A) (B) (A) (B) (E) (E)
 The electronic state of the initial guess is 1-A.
 Requested convergence on RMS density matrix=1.00D-08 within 128 cycles.
 Requested convergence on MAX density matrix=1.00D-06.
 Requested convergence on             energy=1.00D-06.
 No special actions if energy rises.
 SCF Done:  E(RHF) =  -304.193032530     A.U. after   10 cycles
             Convg  =    0.4522D-08             -V/T =  2.0018
             S**2   =   0.0000
 ExpMin= 2.97D-02 ExpMax= 1.17D+04 ExpMxC= 4.01D+02 IAcc=3 IRadAn=         5 AccDes= 0.00D+00
 HarFok:  IExCor= 205 AccDes= 0.00D+00 IRadAn=         5 IDoV=1
 ScaDFX=  1.000000  1.000000  1.000000  1.000000
 Range of M.O.s used for correlation:     5   164
 NBasis=   164 NAE=    20 NBE=    20 NFC=     4 NFV=     0
 NROrb=    160 NOA=    16 NOB=    16 NVA=   144 NVB=   144
 Fully direct method using O(ONN) memory.
 JobTyp=1 Pass  1:  I=   5 to  20 NPSUse=  2 ParTrn=T ParDer=T DoDerP=T.
 Spin components of T(2) and E(2):
     alpha-alpha T2 =       0.3214778288D-01 E2=     -0.1161465780D+00
     alpha-beta  T2 =       0.1762681354D+00 E2=     -0.6641014197D+00
     beta-beta   T2 =       0.3214778288D-01 E2=     -0.1161465780D+00
 ANorm=    0.1113805953D+01
 E2 =    -0.8963945756D+00 EUMP2 =    -0.30508942710528D+03
 DoAtom=TTTTTTTTTTTT
          Differentiating once with respect to electric field.
                with respect to dipole field.
          Differentiating once with respect to nuclear coordinates.
          There are   1 degrees of freedom in the 1st order CPHF.
 Petite list used in FoFDir.
 MinBra= 0 MaxBra= 2 Meth= 1.
 IRaf=       0 NMat=   1 IRICut=       1 DoRegI=T DoRafI=F ISym2E= 1 JSym2E=1.
     1 vectors were produced by pass  0.
 AX will form   1 AO Fock derivatives at one time.
     1 vectors were produced by pass  1.
     1 vectors were produced by pass  2.
     1 vectors were produced by pass  3.
     1 vectors were produced by pass  4.
     1 vectors were produced by pass  5.
     1 vectors were produced by pass  6.
     1 vectors were produced by pass  7.
     1 vectors were produced by pass  8.
     1 vectors were produced by pass  9.
 Inv2:  IOpt= 1 Iter= 1 AM= 2.67D-16 Conv= 1.00D-12.
 Inverted reduced A of dimension   10 with in-core refinement.
 End of Minotr Frequency-dependent properties file   721 does not exist.

 **********************************************************************

            Population analysis using the SCF density.

 **********************************************************************

 Orbital symmetries:
       Occupied  (B) (E) (E) (A) (A) (E) (E) (B) (A) (E) (E) (B)
                 (B) (E) (E) (A) (A) (E) (E) (B)
       Virtual   (A) (E) (E) (B) (B) (E) (E) (A) (B) (A) (E) (E)
                 (B) (A) (E) (E) (E) (E) (B) (A) (B) (E) (E) (A)
                 (A) (E) (E) (A) (B) (A) (E) (E) (A) (B) (E) (E)
                 (B) (B) (A) (B) (E) (E) (E) (E) (E) (E) (B) (A)
                 (B) (A) (E) (E) (A) (E) (E) (B) (A) (B) (E) (E)
                 (B) (E) (E) (A) (B) (E) (E) (A) (B) (E) (E) (A)
                 (E) (E) (A) (B) (E) (E) (B) (A) (B) (A) (E) (E)
                 (A) (E) (E) (B) (A) (B) (E) (E) (A) (E) (E) (B)
                 (A) (B) (E) (E) (B) (E) (E) (A) (B) (E) (E) (A)
                 (E) (E) (B) (A) (A) (B) (E) (E) (B) (A) (E) (E)
                 (E) (E) (B) (A) (A) (E) (E) (B) (A) (E) (E) (B)
                 (B) (A) (E) (E) (E) (E) (A) (B) (A) (B) (E) (E)
 The electronic state is 1-A.
 Alpha  occ. eigenvalues --  -20.56975 -20.56975 -20.56975 -20.56974  -1.36248
 Alpha  occ. eigenvalues --   -1.34723  -1.34723  -1.33222  -0.72799  -0.71477
 Alpha  occ. eigenvalues --   -0.71477  -0.70628  -0.62280  -0.58615  -0.58615
 Alpha  occ. eigenvalues --   -0.55116  -0.50489  -0.50381  -0.50381  -0.50284
 Alpha virt. eigenvalues --    0.03330   0.05134   0.05134   0.05692   0.08141
 Alpha virt. eigenvalues --    0.09513   0.09513   0.10434   0.15141   0.18847
 Alpha virt. eigenvalues --    0.20216   0.20216   0.21718   0.22946   0.23032
 Alpha virt. eigenvalues --    0.23032   0.25933   0.25933   0.26616   0.27754
 Alpha virt. eigenvalues --    0.29503   0.30103   0.30103   0.30723   0.34559
 Alpha virt. eigenvalues --    0.36251   0.36251   0.36567   0.38339   0.41816
 Alpha virt. eigenvalues --    0.46453   0.46453   0.47781   0.47961   0.48996
 Alpha virt. eigenvalues --    0.48996   0.50907   0.54178   0.55224   0.55411
 Alpha virt. eigenvalues --    0.55722   0.55722   0.59306   0.59306   0.63112
 Alpha virt. eigenvalues --    0.63112   0.63149   0.65244   0.68212   0.69601
 Alpha virt. eigenvalues --    0.69864   0.69864   0.78364   0.80511   0.80511
 Alpha virt. eigenvalues --    0.85560   0.90991   0.94662   0.97488   0.97488
 Alpha virt. eigenvalues --    1.02760   1.05558   1.05558   1.06548   1.17383
 Alpha virt. eigenvalues --    1.19621   1.19621   1.21738   1.22438   1.25702
 Alpha virt. eigenvalues --    1.25702   1.26877   1.29030   1.29030   1.30877
 Alpha virt. eigenvalues --    1.33762   1.41103   1.41103   1.43604   1.44721
 Alpha virt. eigenvalues --    1.47783   1.49376   1.57920   1.57920   1.63476
 Alpha virt. eigenvalues --    1.71838   1.71838   1.72609   1.90448   1.91173
 Alpha virt. eigenvalues --    1.97191   1.97191   2.03138   2.03478   2.03478
 Alpha virt. eigenvalues --    2.03745   2.15536   2.16380   2.16611   2.16611
 Alpha virt. eigenvalues --    2.27506   2.32500   2.32500   2.36764   2.39793
 Alpha virt. eigenvalues --    2.46331   2.46331   2.52089   2.55152   2.55152
 Alpha virt. eigenvalues --    2.60329   2.64685   2.77985   2.78111   2.78679
 Alpha virt. eigenvalues --    2.78679   2.92478   2.93714   2.94493   2.94493
 Alpha virt. eigenvalues --    3.15311   3.15311   3.16279   3.24207   3.74476
 Alpha virt. eigenvalues --    3.74492   3.74492   3.74724   3.75359   3.78266
 Alpha virt. eigenvalues --    3.78266   3.83450   3.87309   3.87543   3.88330
 Alpha virt. eigenvalues --    3.88330   4.15944   4.15944   4.16478   4.20942
 Alpha virt. eigenvalues --    4.39532   4.39724   4.41613   4.41613
          Condensed to atoms (all electrons):
              1          2          3          4          5          6
     1  O    7.936703   0.305897   0.371355  -0.050008  -0.011002  -0.004749
     2  H    0.305897   0.450382  -0.055749  -0.004417  -0.002046  -0.000954
     3  H    0.371355  -0.055749   0.520848  -0.000076  -0.001190   0.000090
     4  O   -0.050008  -0.004417  -0.000076   7.936703   0.305897   0.371355
     5  H   -0.011002  -0.002046  -0.001190   0.305897   0.450382  -0.055749
     6  H   -0.004749  -0.000954   0.000090   0.371355  -0.055749   0.520848
     7  O   -0.000726  -0.000117   0.000178  -0.050008  -0.004417  -0.000076
     8  H   -0.000117  -0.001143  -0.000379  -0.011002  -0.002046  -0.001190
     9  H    0.000178  -0.000379   0.000272  -0.004749  -0.000954   0.000090
    10  O   -0.050008  -0.011002  -0.004749  -0.000726  -0.000117   0.000178
    11  H   -0.004417  -0.002046  -0.000954  -0.000117  -0.001143  -0.000379
    12  H   -0.000076  -0.001190   0.000090   0.000178  -0.000379   0.000272
              7          8          9         10         11         12
     1  O   -0.000726  -0.000117   0.000178  -0.050008  -0.004417  -0.000076
     2  H   -0.000117  -0.001143  -0.000379  -0.011002  -0.002046  -0.001190
     3  H    0.000178  -0.000379   0.000272  -0.004749  -0.000954   0.000090
     4  O   -0.050008  -0.011002  -0.004749  -0.000726  -0.000117   0.000178
     5  H   -0.004417  -0.002046  -0.000954  -0.000117  -0.001143  -0.000379
     6  H   -0.000076  -0.001190   0.000090   0.000178  -0.000379   0.000272
     7  O    7.936703   0.305897   0.371355  -0.050008  -0.011002  -0.004749
     8  H    0.305897   0.450382  -0.055749  -0.004417  -0.002046  -0.000954
     9  H    0.371355  -0.055749   0.520848  -0.000076  -0.001190   0.000090
    10  O   -0.050008  -0.004417  -0.000076   7.936703   0.305897   0.371355
    11  H   -0.011002  -0.002046  -0.001190   0.305897   0.450382  -0.055749
    12  H   -0.004749  -0.000954   0.000090   0.371355  -0.055749   0.520848
 Mulliken atomic charges:
              1
     1  O   -0.493029
     2  H    0.322764
     3  H    0.170265
     4  O   -0.493029
     5  H    0.322764
     6  H    0.170265
     7  O   -0.493029
     8  H    0.322764
     9  H    0.170265
    10  O   -0.493029
    11  H    0.322764
    12  H    0.170265
 Sum of Mulliken charges=   0.00000
 Atomic charges with hydrogens summed into heavy atoms:
              1
     1  O    0.000000
     2  H    0.000000
     3  H    0.000000
     4  O    0.000000
     5  H    0.000000
     6  H    0.000000
     7  O    0.000000
     8  H    0.000000
     9  H    0.000000
    10  O    0.000000
    11  H    0.000000
    12  H    0.000000
 Sum of Mulliken charges=   0.00000
 Electronic spatial extent (au):  <R**2>=   620.2677
 Charge=     0.0000 electrons
 Dipole moment (field-independent basis, Debye):
    X=     0.0000    Y=     0.0000    Z=     0.0000  Tot=     0.0000
 Quadrupole moment (field-independent basis, Debye-Ang):
   XX=   -23.8957   YY=   -23.8957   ZZ=   -23.9362
   XY=     0.0000   XZ=     0.0000   YZ=     0.0000
 Traceless Quadrupole moment (field-independent basis, Debye-Ang):
   XX=     0.0135   YY=     0.0135   ZZ=    -0.0270
   XY=     0.0000   XZ=     0.0000   YZ=     0.0000
 Octapole moment (field-independent basis, Debye-Ang**2):
  XXX=     0.0000  YYY=     0.0000  ZZZ=     0.0000  XYY=     0.0000
  XXY=     0.0000  XXZ=    -2.1227  XZZ=     0.0000  YZZ=     0.0000
  YYZ=     2.1227  XYZ=   -20.9825
 Hexadecapole moment (field-independent basis, Debye-Ang**3):
 XXXX=  -308.3721 YYYY=  -308.3721 ZZZZ=   -26.7943 XXXY=     7.4439
 XXXZ=     0.0000 YYYX=    -7.4439 YYYZ=     0.0000 ZZZX=     0.0000
 ZZZY=     0.0000 XXYY=   -92.2476 XXZZ=   -48.6432 YYZZ=   -48.6432
 XXYZ=     0.0000 YYXZ=     0.0000 ZZXY=     0.0000
 N-N= 1.409137711922D+02 E-N=-1.004082264340D+03  KE= 3.036557850538D+02
 Symmetry A    KE= 1.517942440608D+02
 Symmetry B    KE= 1.518615409930D+02
 ***** Axes restored to original set *****
 -------------------------------------------------------------------
 Center     Atomic                   Forces (Hartrees/Bohr)
 Number     Number              X              Y              Z
 -------------------------------------------------------------------
    1          8          -0.000025533    0.000163949   -0.000127258
    2          1           0.000107147   -0.000038076   -0.000082185
    3          1           0.000017003   -0.000031013    0.000091694
    4          8           0.000163949    0.000025533    0.000127258
    5          1          -0.000038076   -0.000107147    0.000082185
    6          1          -0.000031013   -0.000017003   -0.000091694
    7          8           0.000025533   -0.000163949   -0.000127258
    8          1          -0.000107147    0.000038076   -0.000082185
    9          1          -0.000017003    0.000031013    0.000091694
   10          8          -0.000163949   -0.000025533    0.000127258
   11          1           0.000038076    0.000107147    0.000082185
   12          1           0.000031013    0.000017003   -0.000091694
 -------------------------------------------------------------------
 Cartesian Forces:  Max     0.000163949 RMS     0.000090104

 GradGradGradGradGradGradGradGradGradGradGradGradGradGradGradGradGradGrad
 Berny optimization.
 Internal  Forces:  Max     0.000096525 RMS     0.000048371
 Search for a local minimum.
 Step number   1 out of a maximum of  54
 All quantities printed in internal units (Hartrees-Bohrs-Radians)
 Second derivative matrix not updated -- first step.
     Eigenvalues ---    0.00230   0.00699   0.00717   0.00717   0.01228
     Eigenvalues ---    0.05359   0.05359   0.06145   0.06331   0.06331
     Eigenvalues ---    0.06742   0.07087   0.07087   0.10893   0.12036
     Eigenvalues ---    0.12036   0.12936   0.15999   0.20020   0.21037
     Eigenvalues ---    0.21037   0.24996   0.49045   0.49045   0.50431
     Eigenvalues ---    0.50431   0.54375   0.54375   0.54375   0.54375
     Eigenvalues --- 1000.000001000.000001000.000001000.000001000.00000
     Eigenvalues --- 1000.000001000.000001000.000001000.000001000.00000
     Eigenvalues --- 1000.000001000.000001000.000001000.00000
 RFO step:  Lambda=-1.24643006D-06.
 Linear search not attempted -- first point.
 Iteration  1 RMS(Cart)=  0.00064981 RMS(Int)=  0.00000046
 Iteration  2 RMS(Cart)=  0.00000039 RMS(Int)=  0.00000013
 Variable       Old X    -DE/DX   Delta X   Delta X   Delta X     New X
                                 (Linear)    (Quad)   (Total)
    R1        1.86133   0.00002   0.00000   0.00003   0.00003   1.86136
    R2        1.82391  -0.00006   0.00000  -0.00011  -0.00011   1.82380
    R3        3.36635  -0.00010   0.00000  -0.00152  -0.00152   3.36483
    R4        3.36635  -0.00010   0.00000  -0.00152  -0.00152   3.36483
    R5        1.86133   0.00002   0.00000   0.00003   0.00003   1.86136
    R6        1.82391  -0.00006   0.00000  -0.00011  -0.00011   1.82380
    R7        3.36635  -0.00010   0.00000  -0.00152  -0.00152   3.36483
    R8        1.86133   0.00002   0.00000   0.00003   0.00003   1.86136
    R9        1.82391  -0.00006   0.00000  -0.00011  -0.00011   1.82380
   R10        3.36635  -0.00010   0.00000  -0.00152  -0.00152   3.36483
   R11        1.86133   0.00002   0.00000   0.00003   0.00003   1.86136
   R12        1.82391  -0.00006   0.00000  -0.00011  -0.00011   1.82380
    A1        1.83109  -0.00001   0.00000   0.00025   0.00025   1.83133
    A2        1.78442   0.00002   0.00000   0.00019   0.00019   1.78461
    A3        2.08110   0.00008   0.00000   0.00082   0.00082   2.08192
    A4        2.92767  -0.00002   0.00000  -0.00019  -0.00019   2.92748
    A5        1.83109  -0.00001   0.00000   0.00025   0.00025   1.83133
    A6        1.78442   0.00002   0.00000   0.00019   0.00019   1.78461
    A7        2.08110   0.00008   0.00000   0.00082   0.00082   2.08192
    A8        2.92767  -0.00002   0.00000  -0.00019  -0.00019   2.92748
    A9        1.83109  -0.00001   0.00000   0.00025   0.00025   1.83133
   A10        1.78442   0.00002   0.00000   0.00019   0.00019   1.78461
   A11        2.08110   0.00008   0.00000   0.00082   0.00082   2.08192
   A12        2.92767  -0.00002   0.00000  -0.00019  -0.00019   2.92748
   A13        1.78442   0.00002   0.00000   0.00019   0.00019   1.78461
   A14        2.08110   0.00008   0.00000   0.00082   0.00082   2.08192
   A15        1.83109  -0.00001   0.00000   0.00025   0.00025   1.83133
   A16        2.92767  -0.00002   0.00000  -0.00019  -0.00019   2.92748
    D1        2.13066   0.00006   0.00000   0.00134   0.00134   2.13200
    D2       -0.05274  -0.00004   0.00000   0.00021   0.00021  -0.05253
    D3       -0.04597   0.00002   0.00000   0.00009   0.00009  -0.04588
    D4       -2.05377  -0.00002   0.00000  -0.00076  -0.00076  -2.05454
    D5        0.04597  -0.00002   0.00000  -0.00009  -0.00009   0.04588
    D6        2.05377   0.00002   0.00000   0.00076   0.00076   2.05454
    D7       -2.13066  -0.00006   0.00000  -0.00134  -0.00134  -2.13200
    D8        0.05274   0.00004   0.00000  -0.00021  -0.00021   0.05253
    D9        0.04597  -0.00002   0.00000  -0.00009  -0.00009   0.04588
   D10        2.05377   0.00002   0.00000   0.00076   0.00076   2.05454
   D11        2.13066   0.00006   0.00000   0.00134   0.00134   2.13200
   D12       -0.05274  -0.00004   0.00000   0.00021   0.00021  -0.05253
   D13       -0.04597   0.00002   0.00000   0.00009   0.00009  -0.04588
   D14       -2.05377  -0.00002   0.00000  -0.00076  -0.00076  -2.05454
   D15        0.05274   0.00004   0.00000  -0.00021  -0.00021   0.05253
   D16       -2.13066  -0.00006   0.00000  -0.00134  -0.00134  -2.13200
         Item               Value     Threshold  Converged?
 Maximum Force            0.000097     0.000450     YES
 RMS     Force            0.000048     0.000300     YES
 Maximum Displacement     0.001542     0.001800     YES
 RMS     Displacement     0.000650     0.001200     YES
 Predicted change in Energy=-6.233625D-07
 Optimization completed.
    -- Stationary point found.
                           ----------------------------
                           !   Optimized Parameters   !
                           ! (Angstroms and Degrees)  !
 --------------------------                            --------------------------
 ! Name  Definition              Value          Derivative Info.                !
 --------------------------------------------------------------------------------
 ! R1    R(1,2)                  0.985          -DE/DX =    0.0                 !
 ! R2    R(1,3)                  0.9652         -DE/DX =   -0.0001              !
 ! R3    R(1,5)                  1.7814         -DE/DX =   -0.0001              !
 ! R4    R(2,10)                 1.7814         -DE/DX =   -0.0001              !
 ! R5    R(4,5)                  0.985          -DE/DX =    0.0                 !
 ! R6    R(4,6)                  0.9652         -DE/DX =   -0.0001              !
 ! R7    R(4,8)                  1.7814         -DE/DX =   -0.0001              !
 ! R8    R(7,8)                  0.985          -DE/DX =    0.0                 !
 ! R9    R(7,9)                  0.9652         -DE/DX =   -0.0001              !
 ! R10   R(7,11)                 1.7814         -DE/DX =   -0.0001              !
 ! R11   R(10,11)                0.985          -DE/DX =    0.0                 !
 ! R12   R(10,12)                0.9652         -DE/DX =   -0.0001              !
 ! A1    A(2,1,3)              104.9135         -DE/DX =    0.0                 !
 ! A2    A(2,1,5)              102.2397         -DE/DX =    0.0                 !
 ! A3    A(3,1,5)              119.2381         -DE/DX =    0.0001              !
 ! A4    A(1,2,10)             167.7433         -DE/DX =    0.0                 !
 ! A5    A(5,4,6)              104.9135         -DE/DX =    0.0                 !
 ! A6    A(5,4,8)              102.2397         -DE/DX =    0.0                 !
 ! A7    A(6,4,8)              119.2381         -DE/DX =    0.0001              !
 ! A8    A(1,5,4)              167.7433         -DE/DX =    0.0                 !
 ! A9    A(8,7,9)              104.9135         -DE/DX =    0.0                 !
 ! A10   A(8,7,11)             102.2397         -DE/DX =    0.0                 !
 ! A11   A(9,7,11)             119.2381         -DE/DX =    0.0001              !
 ! A12   A(4,8,7)              167.7433         -DE/DX =    0.0                 !
 ! A13   A(2,10,11)            102.2397         -DE/DX =    0.0                 !
 ! A14   A(2,10,12)            119.2381         -DE/DX =    0.0001              !
 ! A15   A(11,10,12)           104.9135         -DE/DX =    0.0                 !
 ! A16   A(7,11,10)            167.7433         -DE/DX =    0.0                 !
 ! D1    D(3,1,2,10)           122.0777         -DE/DX =    0.0001              !
 ! D2    D(5,1,2,10)            -3.0219         -DE/DX =    0.0                 !
 ! D3    D(2,1,5,4)             -2.6341         -DE/DX =    0.0                 !
 ! D4    D(3,1,5,4)           -117.6725         -DE/DX =    0.0                 !
 ! D5    D(1,2,10,11)            2.6341         -DE/DX =    0.0                 !
 ! D6    D(1,2,10,12)          117.6725         -DE/DX =    0.0                 !
 ! D7    D(6,4,5,1)           -122.0777         -DE/DX =   -0.0001              !
 ! D8    D(8,4,5,1)              3.0219         -DE/DX =    0.0                 !
 ! D9    D(5,4,8,7)              2.6341         -DE/DX =    0.0                 !
 ! D10   D(6,4,8,7)            117.6725         -DE/DX =    0.0                 !
 ! D11   D(9,7,8,4)            122.0777         -DE/DX =    0.0001              !
 ! D12   D(11,7,8,4)            -3.0219         -DE/DX =    0.0                 !
 ! D13   D(8,7,11,10)           -2.6341         -DE/DX =    0.0                 !
 ! D14   D(9,7,11,10)         -117.6725         -DE/DX =    0.0                 !
 ! D15   D(2,10,11,7)            3.0219         -DE/DX =    0.0                 !
 ! D16   D(12,10,11,7)        -122.0777         -DE/DX =   -0.0001              !
 --------------------------------------------------------------------------------
 GradGradGradGradGradGradGradGradGradGradGradGradGradGradGradGradGradGrad

                          Input orientation:                          
 ---------------------------------------------------------------------
 Center     Atomic     Atomic              Coordinates (Angstroms)
 Number     Number      Type              X           Y           Z
 ---------------------------------------------------------------------
    1          8             0       -1.382405   -1.369436   -0.001823
    2          1             0       -0.407437   -1.509192    0.006831
    3          1             0       -1.697848   -1.866729   -0.766516
    4          8             0       -1.369436    1.382405    0.001823
    5          1             0       -1.509192    0.407437   -0.006831
    6          1             0       -1.866729    1.697848    0.766516
    7          8             0        1.382405    1.369436   -0.001823
    8          1             0        0.407437    1.509192    0.006831
    9          1             0        1.697848    1.866729   -0.766516
   10          8             0        1.369436   -1.382405    0.001823
   11          1             0        1.509192   -0.407437   -0.006831
   12          1             0        1.866729   -1.697848    0.766516
 ---------------------------------------------------------------------
                    Distance matrix (angstroms):
                    1          2          3          4          5
     1  O    0.000000
     2  H    0.984972   0.000000
     3  H    0.965174   1.546305   0.000000
     4  O    2.751874   3.047425   3.354858   0.000000
     5  H    1.781398   2.210773   2.405108   0.984972   0.000000
     6  H    3.198929   3.604408   3.883931   0.965174   1.546305
     7  O    3.891734   3.389706   4.532712   2.751874   3.047425
     8  H    3.389706   3.126446   4.053040   1.781398   2.210773
     9  H    4.532712   4.053040   5.046728   3.198929   3.604408
    10  O    2.751874   1.781398   3.198929   3.891734   3.389706
    11  H    3.047425   2.210773   3.604408   3.389706   3.126446
    12  H    3.354858   2.405108   3.883931   4.532712   4.053040
                    6          7          8          9         10
     6  H    0.000000
     7  O    3.354858   0.000000
     8  H    2.405108   0.984972   0.000000
     9  H    3.883931   0.965174   1.546305   0.000000
    10  O    4.532712   2.751874   3.047425   3.354858   0.000000
    11  H    4.053040   1.781398   2.210773   2.405108   0.984972
    12  H    5.046728   3.198929   3.604408   3.883931   0.965174
                   11         12
    11  H    0.000000
    12  H    1.546305   0.000000
 Stoichiometry    H8O4
 Framework group  S4[X(H8O4)]
 Deg. of freedom     8
 Full point group                 S4
 Largest Abelian subgroup         C2      NOp   2
 Largest concise Abelian subgroup C2      NOp   2
                         Standard orientation:                         
 ---------------------------------------------------------------------
 Center     Atomic     Atomic              Coordinates (Angstroms)
 Number     Number      Type              X           Y           Z
 ---------------------------------------------------------------------
    1          8             0       -1.375936    1.375936    0.001823
    2          1             0       -0.400320    1.511095   -0.006831
    3          1             0       -1.689032    1.874710    0.766516
    4          8             0       -1.375936   -1.375936   -0.001823
    5          1             0       -1.511095   -0.400320    0.006831
    6          1             0       -1.874710   -1.689032   -0.766516
    7          8             0        1.375936   -1.375936    0.001823
    8          1             0        0.400320   -1.511095   -0.006831
    9          1             0        1.689032   -1.874710    0.766516
   10          8             0        1.375936    1.375936   -0.001823
   11          1             0        1.511095    0.400320    0.006831
   12          1             0        1.874710    1.689032   -0.766516
 ---------------------------------------------------------------------
 Rotational constants (GHZ):      3.5777734      3.5777734      1.8193997

 **********************************************************************

            Population analysis using the SCF density.

 **********************************************************************

 Orbital symmetries:
       Occupied  (B) (E) (E) (A) (A) (E) (E) (B) (A) (E) (E) (B)
                 (B) (E) (E) (A) (A) (E) (E) (B)
       Virtual   (A) (E) (E) (B) (B) (E) (E) (A) (B) (A) (E) (E)
                 (B) (A) (E) (E) (E) (E) (B) (A) (B) (E) (E) (A)
                 (A) (E) (E) (A) (B) (A) (E) (E) (A) (B) (E) (E)
                 (B) (B) (A) (B) (E) (E) (E) (E) (E) (E) (B) (A)
                 (B) (A) (E) (E) (A) (E) (E) (B) (A) (B) (E) (E)
                 (B) (E) (E) (A) (B) (E) (E) (A) (B) (E) (E) (A)
                 (E) (E) (A) (B) (E) (E) (B) (A) (B) (A) (E) (E)
                 (A) (E) (E) (B) (A) (B) (E) (E) (A) (E) (E) (B)
                 (A) (B) (E) (E) (B) (E) (E) (A) (B) (E) (E) (A)
                 (E) (E) (B) (A) (A) (B) (E) (E) (B) (A) (E) (E)
                 (E) (E) (B) (A) (A) (E) (E) (B) (A) (E) (E) (B)
                 (B) (A) (E) (E) (E) (E) (A) (B) (A) (B) (E) (E)
 The electronic state is 1-A.
 Alpha  occ. eigenvalues --  -20.56975 -20.56975 -20.56975 -20.56974  -1.36248
 Alpha  occ. eigenvalues --   -1.34723  -1.34723  -1.33222  -0.72799  -0.71477
 Alpha  occ. eigenvalues --   -0.71477  -0.70628  -0.62280  -0.58615  -0.58615
 Alpha  occ. eigenvalues --   -0.55116  -0.50489  -0.50381  -0.50381  -0.50284
 Alpha virt. eigenvalues --    0.03330   0.05134   0.05134   0.05692   0.08141
 Alpha virt. eigenvalues --    0.09513   0.09513   0.10434   0.15141   0.18847
 Alpha virt. eigenvalues --    0.20216   0.20216   0.21718   0.22946   0.23032
 Alpha virt. eigenvalues --    0.23032   0.25933   0.25933   0.26616   0.27754
 Alpha virt. eigenvalues --    0.29503   0.30103   0.30103   0.30723   0.34559
 Alpha virt. eigenvalues --    0.36251   0.36251   0.36567   0.38339   0.41816
 Alpha virt. eigenvalues --    0.46453   0.46453   0.47781   0.47961   0.48996
 Alpha virt. eigenvalues --    0.48996   0.50907   0.54178   0.55224   0.55411
 Alpha virt. eigenvalues --    0.55722   0.55722   0.59306   0.59306   0.63112
 Alpha virt. eigenvalues --    0.63112   0.63149   0.65244   0.68212   0.69601
 Alpha virt. eigenvalues --    0.69864   0.69864   0.78364   0.80511   0.80511
 Alpha virt. eigenvalues --    0.85560   0.90991   0.94662   0.97488   0.97488
 Alpha virt. eigenvalues --    1.02760   1.05558   1.05558   1.06548   1.17383
 Alpha virt. eigenvalues --    1.19621   1.19621   1.21738   1.22438   1.25702
 Alpha virt. eigenvalues --    1.25702   1.26877   1.29030   1.29030   1.30877
 Alpha virt. eigenvalues --    1.33762   1.41103   1.41103   1.43604   1.44721
 Alpha virt. eigenvalues --    1.47783   1.49376   1.57920   1.57920   1.63476
 Alpha virt. eigenvalues --    1.71838   1.71838   1.72609   1.90448   1.91173
 Alpha virt. eigenvalues --    1.97191   1.97191   2.03138   2.03478   2.03478
 Alpha virt. eigenvalues --    2.03745   2.15536   2.16380   2.16611   2.16611
 Alpha virt. eigenvalues --    2.27506   2.32500   2.32500   2.36764   2.39793
 Alpha virt. eigenvalues --    2.46331   2.46331   2.52089   2.55152   2.55152
 Alpha virt. eigenvalues --    2.60329   2.64685   2.77985   2.78111   2.78679
 Alpha virt. eigenvalues --    2.78679   2.92478   2.93714   2.94493   2.94493
 Alpha virt. eigenvalues --    3.15311   3.15311   3.16279   3.24207   3.74476
 Alpha virt. eigenvalues --    3.74492   3.74492   3.74724   3.75359   3.78266
 Alpha virt. eigenvalues --    3.78266   3.83450   3.87309   3.87543   3.88330
 Alpha virt. eigenvalues --    3.88330   4.15944   4.15944   4.16478   4.20942
 Alpha virt. eigenvalues --    4.39532   4.39724   4.41613   4.41613
          Condensed to atoms (all electrons):
              1          2          3          4          5          6
     1  O    7.936703   0.305897   0.371355  -0.050008  -0.011002  -0.004749
     2  H    0.305897   0.450382  -0.055749  -0.004417  -0.002046  -0.000954
     3  H    0.371355  -0.055749   0.520848  -0.000076  -0.001190   0.000090
     4  O   -0.050008  -0.004417  -0.000076   7.936703   0.305897   0.371355
     5  H   -0.011002  -0.002046  -0.001190   0.305897   0.450382  -0.055749
     6  H   -0.004749  -0.000954   0.000090   0.371355  -0.055749   0.520848
     7  O   -0.000726  -0.000117   0.000178  -0.050008  -0.004417  -0.000076
     8  H   -0.000117  -0.001143  -0.000379  -0.011002  -0.002046  -0.001190
     9  H    0.000178  -0.000379   0.000272  -0.004749  -0.000954   0.000090
    10  O   -0.050008  -0.011002  -0.004749  -0.000726  -0.000117   0.000178
    11  H   -0.004417  -0.002046  -0.000954  -0.000117  -0.001143  -0.000379
    12  H   -0.000076  -0.001190   0.000090   0.000178  -0.000379   0.000272
              7          8          9         10         11         12
     1  O   -0.000726  -0.000117   0.000178  -0.050008  -0.004417  -0.000076
     2  H   -0.000117  -0.001143  -0.000379  -0.011002  -0.002046  -0.001190
     3  H    0.000178  -0.000379   0.000272  -0.004749  -0.000954   0.000090
     4  O   -0.050008  -0.011002  -0.004749  -0.000726  -0.000117   0.000178
     5  H   -0.004417  -0.002046  -0.000954  -0.000117  -0.001143  -0.000379
     6  H   -0.000076  -0.001190   0.000090   0.000178  -0.000379   0.000272
     7  O    7.936703   0.305897   0.371355  -0.050008  -0.011002  -0.004749
     8  H    0.305897   0.450382  -0.055749  -0.004417  -0.002046  -0.000954
     9  H    0.371355  -0.055749   0.520848  -0.000076  -0.001190   0.000090
    10  O   -0.050008  -0.004417  -0.000076   7.936703   0.305897   0.371355
    11  H   -0.011002  -0.002046  -0.001190   0.305897   0.450382  -0.055749
    12  H   -0.004749  -0.000954   0.000090   0.371355  -0.055749   0.520848
 Mulliken atomic charges:
              1
     1  O   -0.493029
     2  H    0.322764
     3  H    0.170265
     4  O   -0.493029
     5  H    0.322764
     6  H    0.170265
     7  O   -0.493029
     8  H    0.322764
     9  H    0.170265
    10  O   -0.493029
    11  H    0.322764
    12  H    0.170265
 Sum of Mulliken charges=   0.00000
 Atomic charges with hydrogens summed into heavy atoms:
              1
     1  O    0.000000
     2  H    0.000000
     3  H    0.000000
     4  O    0.000000
     5  H    0.000000
     6  H    0.000000
     7  O    0.000000
     8  H    0.000000
     9  H    0.000000
    10  O    0.000000
    11  H    0.000000
    12  H    0.000000
 Sum of Mulliken charges=   0.00000
 Electronic spatial extent (au):  <R**2>=   620.2677
 Charge=     0.0000 electrons
 Dipole moment (field-independent basis, Debye):
    X=     0.0000    Y=     0.0000    Z=     0.0000  Tot=     0.0000
 Quadrupole moment (field-independent basis, Debye-Ang):
   XX=   -23.8957   YY=   -23.8957   ZZ=   -23.9362
   XY=     0.0000   XZ=     0.0000   YZ=     0.0000
 Traceless Quadrupole moment (field-independent basis, Debye-Ang):
   XX=     0.0135   YY=     0.0135   ZZ=    -0.0270
   XY=     0.0000   XZ=     0.0000   YZ=     0.0000
 Octapole moment (field-independent basis, Debye-Ang**2):
  XXX=     0.0000  YYY=     0.0000  ZZZ=     0.0000  XYY=     0.0000
  XXY=     0.0000  XXZ=    -2.1227  XZZ=     0.0000  YZZ=     0.0000
  YYZ=     2.1227  XYZ=   -20.9825
 Hexadecapole moment (field-independent basis, Debye-Ang**3):
 XXXX=  -308.3721 YYYY=  -308.3721 ZZZZ=   -26.7943 XXXY=     7.4439
 XXXZ=     0.0000 YYYX=    -7.4439 YYYZ=     0.0000 ZZZX=     0.0000
 ZZZY=     0.0000 XXYY=   -92.2476 XXZZ=   -48.6432 YYZZ=   -48.6432
 XXYZ=     0.0000 YYXZ=     0.0000 ZZXY=     0.0000
 N-N= 1.409137711922D+02 E-N=-1.004082264340D+03  KE= 3.036557850538D+02
 Symmetry A    KE= 1.517942440608D+02
 Symmetry B    KE= 1.518615409930D+02
 1\1\GINC-POLARIS-C01\FOpt\RMP2-FC\Aug-CC-pVDZ\H8O4\G060005\13-Apr-2005
 \0\\# opt freq MP2/aug-cc-pvDZ\\Title Card Required\\0,1\O,-1.382405,-
 1.369436,-0.001823\H,-0.407437,-1.509192,0.006831\H,-1.697848,-1.86672
 9,-0.766516\O,-1.369436,1.382405,0.001823\H,-1.509192,0.407437,-0.0068
 31\H,-1.866729,1.697848,0.766516\O,1.382405,1.369436,-0.001823\H,0.407
 437,1.509192,0.006831\H,1.697848,1.866729,-0.766516\O,1.369436,-1.3824
 05,0.001823\H,1.509192,-0.407437,-0.006831\H,1.866729,-1.697848,0.7665
 16\\Version=AM64L-G03RevD.01\State=1-A\HF=-304.1930325\MP2=-305.089427
 1\RMSD=4.522e-09\RMSF=9.010e-05\Thermal=0.\Dipole=0.,0.,0.\PG=S04 [X(H
 8O4)]\\@


 MATERIAL COPIED FROM ONE SCHOLARLY BOOK WITHOUT CREDIT COMPRISES PLAGIARISM.
 MATERIAL COPIED FROM TWO SCHOLARLY BOOKS COMPRISES AN ESSAY.
 MATERIAL COPIED FROM THREE SCHOLARLY BOOKS COMPRISES A DISSERTATION.
 MATERIAL COPIED FROM FOUR SCHOLARLY BOOKS COMPRISES A FIFTH SCHOLARLY BOOK.

                               -- C&EN, 25 FEB 1980
 Job cpu time:  0 days  0 hours  3 minutes 19.0 seconds.
 File lengths (MBytes):  RWF=     26 Int=      0 D2E=      0 Chk=      8 Scr=      1
 Normal termination of Gaussian 03 at Wed Apr 13 21:35:07 2005.
 Link1:  Proceeding to internal job step number  2.
 ----------------------------------------------------------------------
 #N Geom=AllCheck Guess=Read SCRF=Check GenChk RMP2(FC)/Aug-CC-pVDZ Fre
 q
 ----------------------------------------------------------------------
 1/10=4,29=7,30=1,38=1,40=1,46=1/1,3;
 2/40=1/2;
 3/5=16,7=10,11=1,16=1,25=1,30=1,70=2,71=2/1,2,3;
 4/5=1,7=1/1;
 5/5=2,38=6/2;
 8/6=3,8=1,10=1,19=11,30=-1/1;
 9/15=3,16=-3/6;
 11/6=1,8=1,15=11,17=12,24=-1,27=1,28=-2,29=300,32=6,42=3/1,2,10;
 10/6=2,21=1/2;
 8/6=4,8=1,10=1,19=11,30=-1/11,4;
 10/5=1,20=4/2;
 11/12=2,14=11,16=1,17=2,28=-2,42=3/2,10,12;
 6/7=2,8=2,9=2,10=2/1;
 7/8=1,10=1,12=2,25=1,44=2/1,2,3,16;
 1/10=4,30=1,46=1/3;
 99//99;
 -------------------
 Title Card Required
 -------------------
 Redundant internal coordinates taken from checkpoint file:
 W4.chk
 Charge =  0 Multiplicity = 1
 O,0,-1.382405,-1.369436,-0.001823
 H,0,-0.407437,-1.509192,0.006831
 H,0,-1.697848,-1.866729,-0.766516
 O,0,-1.369436,1.382405,0.001823
 H,0,-1.509192,0.407437,-0.006831
 H,0,-1.866729,1.697848,0.766516
 O,0,1.382405,1.369436,-0.001823
 H,0,0.407437,1.509192,0.006831
 H,0,1.697848,1.866729,-0.766516
 O,0,1.369436,-1.382405,0.001823
 H,0,1.509192,-0.407437,-0.006831
 H,0,1.866729,-1.697848,0.766516
 Recover connectivity data from disk.

 GradGradGradGradGradGradGradGradGradGradGradGradGradGradGradGradGradGrad
 Berny optimization.
 Initialization pass.
                           ----------------------------
                           !    Initial Parameters    !
                           ! (Angstroms and Degrees)  !
 --------------------------                            --------------------------
 ! Name  Definition              Value          Derivative Info.                !
 --------------------------------------------------------------------------------
 ! R1    R(1,2)                  0.985          calculate D2E/DX2 analytically  !
 ! R2    R(1,3)                  0.9652         calculate D2E/DX2 analytically  !
 ! R3    R(1,5)                  1.7814         calculate D2E/DX2 analytically  !
 ! R4    R(2,10)                 1.7814         calculate D2E/DX2 analytically  !
 ! R5    R(4,5)                  0.985          calculate D2E/DX2 analytically  !
 ! R6    R(4,6)                  0.9652         calculate D2E/DX2 analytically  !
 ! R7    R(4,8)                  1.7814         calculate D2E/DX2 analytically  !
 ! R8    R(7,8)                  0.985          calculate D2E/DX2 analytically  !
 ! R9    R(7,9)                  0.9652         calculate D2E/DX2 analytically  !
 ! R10   R(7,11)                 1.7814         calculate D2E/DX2 analytically  !
 ! R11   R(10,11)                0.985          calculate D2E/DX2 analytically  !
 ! R12   R(10,12)                0.9652         calculate D2E/DX2 analytically  !
 ! A1    A(2,1,3)              104.9135         calculate D2E/DX2 analytically  !
 ! A2    A(2,1,5)              102.2397         calculate D2E/DX2 analytically  !
 ! A3    A(3,1,5)              119.2381         calculate D2E/DX2 analytically  !
 ! A4    A(1,2,10)             167.7433         calculate D2E/DX2 analytically  !
 ! A5    A(5,4,6)              104.9135         calculate D2E/DX2 analytically  !
 ! A6    A(5,4,8)              102.2397         calculate D2E/DX2 analytically  !
 ! A7    A(6,4,8)              119.2381         calculate D2E/DX2 analytically  !
 ! A8    A(1,5,4)              167.7433         calculate D2E/DX2 analytically  !
 ! A9    A(8,7,9)              104.9135         calculate D2E/DX2 analytically  !
 ! A10   A(8,7,11)             102.2397         calculate D2E/DX2 analytically  !
 ! A11   A(9,7,11)             119.2381         calculate D2E/DX2 analytically  !
 ! A12   A(4,8,7)              167.7433         calculate D2E/DX2 analytically  !
 ! A13   A(2,10,11)            102.2397         calculate D2E/DX2 analytically  !
 ! A14   A(2,10,12)            119.2381         calculate D2E/DX2 analytically  !
 ! A15   A(11,10,12)           104.9135         calculate D2E/DX2 analytically  !
 ! A16   A(7,11,10)            167.7433         calculate D2E/DX2 analytically  !
 ! D1    D(3,1,2,10)           122.0777         calculate D2E/DX2 analytically  !
 ! D2    D(5,1,2,10)            -3.0219         calculate D2E/DX2 analytically  !
 ! D3    D(2,1,5,4)             -2.6341         calculate D2E/DX2 analytically  !
 ! D4    D(3,1,5,4)           -117.6725         calculate D2E/DX2 analytically  !
 ! D5    D(1,2,10,11)            2.6341         calculate D2E/DX2 analytically  !
 ! D6    D(1,2,10,12)          117.6725         calculate D2E/DX2 analytically  !
 ! D7    D(6,4,5,1)           -122.0777         calculate D2E/DX2 analytically  !
 ! D8    D(8,4,5,1)              3.0219         calculate D2E/DX2 analytically  !
 ! D9    D(5,4,8,7)              2.6341         calculate D2E/DX2 analytically  !
 ! D10   D(6,4,8,7)            117.6725         calculate D2E/DX2 analytically  !
 ! D11   D(9,7,8,4)            122.0777         calculate D2E/DX2 analytically  !
 ! D12   D(11,7,8,4)            -3.0219         calculate D2E/DX2 analytically  !
 ! D13   D(8,7,11,10)           -2.6341         calculate D2E/DX2 analytically  !
 ! D14   D(9,7,11,10)         -117.6725         calculate D2E/DX2 analytically  !
 ! D15   D(2,10,11,7)            3.0219         calculate D2E/DX2 analytically  !
 ! D16   D(12,10,11,7)        -122.0777         calculate D2E/DX2 analytically  !
 --------------------------------------------------------------------------------
 Trust Radius=3.00D-01 FncErr=1.00D-07 GrdErr=1.00D-07
 Number of steps in this run=   2 maximum allowed number of steps=   2.
 GradGradGradGradGradGradGradGradGradGradGradGradGradGradGradGradGradGrad

                          Input orientation:                          
 ---------------------------------------------------------------------
 Center     Atomic     Atomic              Coordinates (Angstroms)
 Number     Number      Type              X           Y           Z
 ---------------------------------------------------------------------
    1          8             0       -1.382405   -1.369436   -0.001823
    2          1             0       -0.407437   -1.509192    0.006831
    3          1             0       -1.697848   -1.866729   -0.766516
    4          8             0       -1.369436    1.382405    0.001823
    5          1             0       -1.509192    0.407437   -0.006831
    6          1             0       -1.866729    1.697848    0.766516
    7          8             0        1.382405    1.369436   -0.001823
    8          1             0        0.407437    1.509192    0.006831
    9          1             0        1.697848    1.866729   -0.766516
   10          8             0        1.369436   -1.382405    0.001823
   11          1             0        1.509192   -0.407437   -0.006831
   12          1             0        1.866729   -1.697848    0.766516
 ---------------------------------------------------------------------
                    Distance matrix (angstroms):
                    1          2          3          4          5
     1  O    0.000000
     2  H    0.984972   0.000000
     3  H    0.965174   1.546305   0.000000
     4  O    2.751874   3.047425   3.354858   0.000000
     5  H    1.781398   2.210773   2.405108   0.984972   0.000000
     6  H    3.198929   3.604408   3.883931   0.965174   1.546305
     7  O    3.891734   3.389706   4.532712   2.751874   3.047425
     8  H    3.389706   3.126446   4.053040   1.781398   2.210773
     9  H    4.532712   4.053040   5.046728   3.198929   3.604408
    10  O    2.751874   1.781398   3.198929   3.891734   3.389706
    11  H    3.047425   2.210773   3.604408   3.389706   3.126446
    12  H    3.354858   2.405108   3.883931   4.532712   4.053040
                    6          7          8          9         10
     6  H    0.000000
     7  O    3.354858   0.000000
     8  H    2.405108   0.984972   0.000000
     9  H    3.883931   0.965174   1.546305   0.000000
    10  O    4.532712   2.751874   3.047425   3.354858   0.000000
    11  H    4.053040   1.781398   2.210773   2.405108   0.984972
    12  H    5.046728   3.198929   3.604408   3.883931   0.965174
                   11         12
    11  H    0.000000
    12  H    1.546305   0.000000
 Stoichiometry    H8O4
 Framework group  S4[X(H8O4)]
 Deg. of freedom     8
 Full point group                 S4
 Largest Abelian subgroup         C2      NOp   2
 Largest concise Abelian subgroup C2      NOp   2
                         Standard orientation:                         
 ---------------------------------------------------------------------
 Center     Atomic     Atomic              Coordinates (Angstroms)
 Number     Number      Type              X           Y           Z
 ---------------------------------------------------------------------
    1          8             0       -1.375936    1.375936    0.001823
    2          1             0       -0.400320    1.511095   -0.006831
    3          1             0       -1.689032    1.874710    0.766516
    4          8             0       -1.375936   -1.375936   -0.001823
    5          1             0       -1.511095   -0.400320    0.006831
    6          1             0       -1.874710   -1.689032   -0.766516
    7          8             0        1.375936   -1.375936    0.001823
    8          1             0        0.400320   -1.511095   -0.006831
    9          1             0        1.689032   -1.874710    0.766516
   10          8             0        1.375936    1.375936   -0.001823
   11          1             0        1.511095    0.400320    0.006831
   12          1             0        1.874710    1.689032   -0.766516
 ---------------------------------------------------------------------
 Rotational constants (GHZ):      3.5777734      3.5777734      1.8193997
 Standard basis: Aug-CC-pVDZ (5D, 7F)
 There are    82 symmetry adapted basis functions of A   symmetry.
 There are    82 symmetry adapted basis functions of B   symmetry.
 Integral buffers will be    131072 words long.
 Raffenetti 1 integral format.
 Two-electron integral symmetry is turned on.
   164 basis functions,   260 primitive gaussians,   172 cartesian basis functions
    20 alpha electrons       20 beta electrons
       nuclear repulsion energy       140.9137711922 Hartrees.
 NAtoms=   12 NActive=   12 NUniq=    3 SFac= 3.00D+00 NAtFMM=   80 NAOKFM=F Big=F
 One-electron integrals computed using PRISM.
 NBasis=   164 RedAO= T  NBF=    82    82
 NBsUse=   164 1.00D-06 NBFU=    82    82
 Initial guess read from the checkpoint file:
 W4.chk
 Initial guess orbital symmetries:
       Occupied  (B) (E) (E) (A) (A) (E) (E) (B) (A) (E) (E) (B)
                 (B) (E) (E) (A) (A) (E) (E) (B)
       Virtual   (A) (E) (E) (B) (B) (E) (E) (A) (B) (A) (E) (E)
                 (B) (A) (E) (E) (E) (E) (B) (A) (B) (E) (E) (A)
                 (A) (E) (E) (A) (B) (A) (E) (E) (A) (B) (E) (E)
                 (B) (B) (A) (B) (E) (E) (E) (E) (E) (E) (B) (A)
                 (B) (A) (E) (E) (A) (E) (E) (B) (A) (B) (E) (E)
                 (B) (E) (E) (A) (B) (E) (E) (A) (B) (E) (E) (A)
                 (E) (E) (A) (B) (E) (E) (B) (A) (B) (A) (E) (E)
                 (A) (E) (E) (B) (A) (B) (E) (E) (A) (E) (E) (B)
                 (A) (B) (E) (E) (B) (E) (E) (A) (B) (E) (E) (A)
                 (E) (E) (B) (A) (A) (B) (E) (E) (B) (A) (E) (E)
                 (E) (E) (B) (A) (A) (E) (E) (B) (A) (E) (E) (B)
                 (B) (A) (E) (E) (E) (E) (A) (B) (A) (B) (E) (E)
 Requested convergence on RMS density matrix=1.00D-08 within 128 cycles.
 Requested convergence on MAX density matrix=1.00D-06.
 Requested convergence on             energy=1.00D-06.
 No special actions if energy rises.
 SCF Done:  E(RHF) =  -304.193032530     A.U. after    1 cycles
             Convg  =    0.6748D-09             -V/T =  2.0018
             S**2   =   0.0000
 ExpMin= 2.97D-02 ExpMax= 1.17D+04 ExpMxC= 4.01D+02 IAcc=3 IRadAn=         5 AccDes= 0.00D+00
 HarFok:  IExCor= 205 AccDes= 0.00D+00 IRadAn=         5 IDoV=1
 ScaDFX=  1.000000  1.000000  1.000000  1.000000
 Range of M.O.s used for correlation:     5   164
 NBasis=   164 NAE=    20 NBE=    20 NFC=     4 NFV=     0
 NROrb=    160 NOA=    16 NOB=    16 NVA=   144 NVB=   144
 Disk-based method using ON**2 memory for 16 occupieds at a time.
 Permanent disk used for amplitudes=    10250640 words.
 Estimated scratch disk usage=    80964960 words.
 Actual    scratch disk usage=    73246560 words.
 JobTyp=1 Pass  1:  I=   5 to  20 NPSUse=  2 ParTrn=T ParDer=T DoDerP=T.
 (rs|ai) integrals will be sorted in core.
 Spin components of T(2) and E(2):
     alpha-alpha T2 =       0.3214778305D-01 E2=     -0.1161465784D+00
     alpha-beta  T2 =       0.1762681361D+00 E2=     -0.6641014210D+00
     beta-beta   T2 =       0.3214778305D-01 E2=     -0.1161465784D+00
 ANorm=    0.1113805954D+01
 E2 =    -0.8963945779D+00 EUMP2 =    -0.30508942710780D+03
 G2DrvN: will do   13 centers at a time, making    1 passes doing MaxLOS=2.
 FoFDir/FoFCou used for L=0 through L=2.
 DoAtom=TTTTTTTTTTTT
          Differentiating once with respect to electric field.
                with respect to dipole field.
          Differentiating once with respect to nuclear coordinates.
 Integrals replicated using symmetry in FoFDir.
 MinBra= 0 MaxBra= 2 Meth= 1.
 IRaf=       0 NMat=  39 IRICut=      39 DoRegI=T DoRafI=T ISym2E= 2 JSym2E=2.
          There are  39 degrees of freedom in the 1st order CPHF.
    36 vectors were produced by pass  0.
 AX will form  36 AO Fock derivatives at one time.
    36 vectors were produced by pass  1.
    36 vectors were produced by pass  2.
    36 vectors were produced by pass  3.
    36 vectors were produced by pass  4.
    36 vectors were produced by pass  5.
    31 vectors were produced by pass  6.
     3 vectors were produced by pass  7.
     1 vectors were produced by pass  8.
 Inv2:  IOpt= 1 Iter= 1 AM= 2.67D-15 Conv= 1.00D-12.
 Inverted reduced A of dimension  251 with in-core refinement.
 End of Minotr Frequency-dependent properties file   721 does not exist.
 MDV=    67108864.
 Form MO integral derivatives with frozen-active canonical formalism.
 Discarding MO integrals.
             Reordered first order wavefunction length =     16588800
 In DefCFB: NBatch=  1, ICI= 20, ICA=144, LFMax= 24
             Large arrays: LIAPS=   324956160, LIARS=    86688000 words.
 Semi-Direct transformation.
 ModeAB=           4 MOrb=            20 LenV=      66304125
 LASXX=     40468465 LTotXX=    40468465 LenRXX=    81671365
 LTotAB=    41202900 MaxLAS=    24370400 LenRXY=           0
 NonZer=   122139830 LenScr=   184752128 LnRSAI=    24370400
 LnScr1=    37330944 LExtra=           0 Total=    328124837
 MaxDsk=          -1 SrtSym=           T ITran=            4
 JobTyp=0 Pass  1:  I=   1 to  20.
 (rs|ai) integrals will be sorted in core.
 Spin components of T(2) and E(2):
     alpha-alpha T2 =       0.3214778305D-01 E2=     -0.1161465784D+00
     alpha-beta  T2 =       0.1762681361D+00 E2=     -0.6641014210D+00
     beta-beta   T2 =       0.3214778305D-01 E2=     -0.1161465784D+00
 ANorm=    0.1575159485D+01
 E2=       -0.8963945779D+00 EUMP2=       -0.30508942710780D+03
 DoAtom=TTTTTTTTTTTT
          Differentiating once with respect to electric field.
                with respect to dipole field.
          Differentiating once with respect to nuclear coordinates.
          There are   1 degrees of freedom in the 1st order CPHF.
 Petite list used in FoFDir.
 MinBra= 0 MaxBra= 2 Meth= 1.
 IRaf=       0 NMat=   1 IRICut=       1 DoRegI=T DoRafI=F ISym2E= 1 JSym2E=1.
     1 vectors were produced by pass  0.
     1 vectors were produced by pass  1.
     1 vectors were produced by pass  2.
     1 vectors were produced by pass  3.
     1 vectors were produced by pass  4.
     1 vectors were produced by pass  5.
     1 vectors were produced by pass  6.
     1 vectors were produced by pass  7.
     1 vectors were produced by pass  8.
     1 vectors were produced by pass  9.
 Inv2:  IOpt= 1 Iter= 1 AM= 2.75D-16 Conv= 1.00D-12.
 Inverted reduced A of dimension   10 with in-core refinement.
 End of Minotr Frequency-dependent properties file   721 does not exist.
 Symmetrizing basis deriv contribution to polar:
 IMax=3 JMax=2 DiffMx= 0.00D+00
 G2DrvN: will do   13 centers at a time, making    1 passes doing MaxLOS=2.
 FoFDir/FoFCou used for L=0 through L=2.
 Would need an additional   156849932 words for in-memory AO integral storage.
 DD1Dir will call FoFDir   1 times, MxPair=       420
 NAB=   210 NAA=     0 NBB=     0 NumPrc=  2.
 Petite list used in FoFDir.
 MinBra= 0 MaxBra= 2 Meth= 1.
 IRaf=       0 NMat= 420 IRICut=     420 DoRegI=T DoRafI=T ISym2E=-1 JSym2E=1.
 Discarding MO integrals.

 **********************************************************************

            Population analysis using the SCF density.

 **********************************************************************

 Orbital symmetries:
       Occupied  (B) (E) (E) (A) (A) (E) (E) (B) (A) (E) (E) (B)
                 (B) (E) (E) (A) (A) (E) (E) (B)
       Virtual   (A) (E) (E) (B) (B) (E) (E) (A) (B) (A) (E) (E)
                 (B) (A) (E) (E) (E) (E) (B) (A) (B) (E) (E) (A)
                 (A) (E) (E) (A) (B) (A) (E) (E) (A) (B) (E) (E)
                 (B) (B) (A) (B) (E) (E) (E) (E) (E) (E) (B) (A)
                 (B) (A) (E) (E) (A) (E) (E) (B) (A) (B) (E) (E)
                 (B) (E) (E) (A) (B) (E) (E) (A) (B) (E) (E) (A)
                 (E) (E) (A) (B) (E) (E) (B) (A) (B) (A) (E) (E)
                 (A) (E) (E) (B) (A) (B) (E) (E) (A) (E) (E) (B)
                 (A) (B) (E) (E) (B) (E) (E) (A) (B) (E) (E) (A)
                 (E) (E) (B) (A) (A) (B) (E) (E) (B) (A) (E) (E)
                 (E) (E) (B) (A) (A) (E) (E) (B) (A) (E) (E) (B)
                 (B) (A) (E) (E) (E) (E) (A) (B) (A) (B) (E) (E)
 The electronic state is 1-A.
 Alpha  occ. eigenvalues --  -20.56975 -20.56975 -20.56975 -20.56974  -1.36248
 Alpha  occ. eigenvalues --   -1.34723  -1.34723  -1.33222  -0.72799  -0.71477
 Alpha  occ. eigenvalues --   -0.71477  -0.70628  -0.62280  -0.58615  -0.58615
 Alpha  occ. eigenvalues --   -0.55116  -0.50489  -0.50381  -0.50381  -0.50284
 Alpha virt. eigenvalues --    0.03330   0.05134   0.05134   0.05692   0.08141
 Alpha virt. eigenvalues --    0.09513   0.09513   0.10434   0.15141   0.18847
 Alpha virt. eigenvalues --    0.20216   0.20216   0.21718   0.22946   0.23032
 Alpha virt. eigenvalues --    0.23032   0.25933   0.25933   0.26616   0.27754
 Alpha virt. eigenvalues --    0.29503   0.30103   0.30103   0.30723   0.34559
 Alpha virt. eigenvalues --    0.36251   0.36251   0.36567   0.38339   0.41816
 Alpha virt. eigenvalues --    0.46453   0.46453   0.47781   0.47961   0.48996
 Alpha virt. eigenvalues --    0.48996   0.50907   0.54178   0.55224   0.55411
 Alpha virt. eigenvalues --    0.55722   0.55722   0.59306   0.59306   0.63112
 Alpha virt. eigenvalues --    0.63112   0.63149   0.65244   0.68212   0.69601
 Alpha virt. eigenvalues --    0.69864   0.69864   0.78364   0.80511   0.80511
 Alpha virt. eigenvalues --    0.85560   0.90991   0.94662   0.97488   0.97488
 Alpha virt. eigenvalues --    1.02760   1.05558   1.05558   1.06548   1.17383
 Alpha virt. eigenvalues --    1.19621   1.19621   1.21738   1.22438   1.25702
 Alpha virt. eigenvalues --    1.25702   1.26877   1.29030   1.29030   1.30877
 Alpha virt. eigenvalues --    1.33762   1.41103   1.41103   1.43604   1.44721
 Alpha virt. eigenvalues --    1.47783   1.49376   1.57920   1.57920   1.63476
 Alpha virt. eigenvalues --    1.71838   1.71838   1.72609   1.90448   1.91173
 Alpha virt. eigenvalues --    1.97191   1.97191   2.03138   2.03478   2.03478
 Alpha virt. eigenvalues --    2.03745   2.15536   2.16380   2.16611   2.16611
 Alpha virt. eigenvalues --    2.27506   2.32500   2.32500   2.36764   2.39793
 Alpha virt. eigenvalues --    2.46331   2.46331   2.52089   2.55152   2.55152
 Alpha virt. eigenvalues --    2.60329   2.64685   2.77985   2.78111   2.78679
 Alpha virt. eigenvalues --    2.78679   2.92478   2.93714   2.94493   2.94493
 Alpha virt. eigenvalues --    3.15311   3.15311   3.16279   3.24207   3.74476
 Alpha virt. eigenvalues --    3.74492   3.74492   3.74724   3.75359   3.78266
 Alpha virt. eigenvalues --    3.78266   3.83450   3.87309   3.87543   3.88330
 Alpha virt. eigenvalues --    3.88330   4.15944   4.15944   4.16478   4.20942
 Alpha virt. eigenvalues --    4.39532   4.39724   4.41613   4.41613
          Condensed to atoms (all electrons):
              1          2          3          4          5          6
     1  O    7.936703   0.305897   0.371355  -0.050008  -0.011002  -0.004749
     2  H    0.305897   0.450382  -0.055749  -0.004417  -0.002046  -0.000954
     3  H    0.371355  -0.055749   0.520848  -0.000076  -0.001190   0.000090
     4  O   -0.050008  -0.004417  -0.000076   7.936703   0.305897   0.371355
     5  H   -0.011002  -0.002046  -0.001190   0.305897   0.450382  -0.055749
     6  H   -0.004749  -0.000954   0.000090   0.371355  -0.055749   0.520848
     7  O   -0.000726  -0.000117   0.000178  -0.050008  -0.004417  -0.000076
     8  H   -0.000117  -0.001143  -0.000379  -0.011002  -0.002046  -0.001190
     9  H    0.000178  -0.000379   0.000272  -0.004749  -0.000954   0.000090
    10  O   -0.050008  -0.011002  -0.004749  -0.000726  -0.000117   0.000178
    11  H   -0.004417  -0.002046  -0.000954  -0.000117  -0.001143  -0.000379
    12  H   -0.000076  -0.001190   0.000090   0.000178  -0.000379   0.000272
              7          8          9         10         11         12
     1  O   -0.000726  -0.000117   0.000178  -0.050008  -0.004417  -0.000076
     2  H   -0.000117  -0.001143  -0.000379  -0.011002  -0.002046  -0.001190
     3  H    0.000178  -0.000379   0.000272  -0.004749  -0.000954   0.000090
     4  O   -0.050008  -0.011002  -0.004749  -0.000726  -0.000117   0.000178
     5  H   -0.004417  -0.002046  -0.000954  -0.000117  -0.001143  -0.000379
     6  H   -0.000076  -0.001190   0.000090   0.000178  -0.000379   0.000272
     7  O    7.936703   0.305897   0.371355  -0.050008  -0.011002  -0.004749
     8  H    0.305897   0.450382  -0.055749  -0.004417  -0.002046  -0.000954
     9  H    0.371355  -0.055749   0.520848  -0.000076  -0.001190   0.000090
    10  O   -0.050008  -0.004417  -0.000076   7.936703   0.305897   0.371355
    11  H   -0.011002  -0.002046  -0.001190   0.305897   0.450382  -0.055749
    12  H   -0.004749  -0.000954   0.000090   0.371355  -0.055749   0.520848
 Mulliken atomic charges:
              1
     1  O   -0.493029
     2  H    0.322764
     3  H    0.170265
     4  O   -0.493029
     5  H    0.322764
     6  H    0.170265
     7  O   -0.493029
     8  H    0.322764
     9  H    0.170265
    10  O   -0.493029
    11  H    0.322764
    12  H    0.170265
 Sum of Mulliken charges=   0.00000
 Atomic charges with hydrogens summed into heavy atoms:
              1
     1  O    0.000000
     2  H    0.000000
     3  H    0.000000
     4  O    0.000000
     5  H    0.000000
     6  H    0.000000
     7  O    0.000000
     8  H    0.000000
     9  H    0.000000
    10  O    0.000000
    11  H    0.000000
    12  H    0.000000
 Sum of Mulliken charges=   0.00000
 APT atomic charges:
              1
     1  O   -0.684617
     2  H    0.433492
     3  H    0.251125
     4  O   -0.684618
     5  H    0.433492
     6  H    0.251125
     7  O   -0.684617
     8  H    0.433492
     9  H    0.251125
    10  O   -0.684618
    11  H    0.433492
    12  H    0.251125
 Sum of APT charges=   0.00000
 APT Atomic charges with hydrogens summed into heavy atoms:
              1
     1  O    0.000000
     2  H    0.000000
     3  H    0.000000
     4  O    0.000000
     5  H    0.000000
     6  H    0.000000
     7  O    0.000000
     8  H    0.000000
     9  H    0.000000
    10  O    0.000000
    11  H    0.000000
    12  H    0.000000
 Sum of APT charges=   0.00000
 Electronic spatial extent (au):  <R**2>=   620.2677
 Charge=     0.0000 electrons
 Dipole moment (field-independent basis, Debye):
    X=     0.0000    Y=     0.0000    Z=     0.0000  Tot=     0.0000
 Quadrupole moment (field-independent basis, Debye-Ang):
   XX=   -23.8957   YY=   -23.8957   ZZ=   -23.9362
   XY=     0.0000   XZ=     0.0000   YZ=     0.0000
 Traceless Quadrupole moment (field-independent basis, Debye-Ang):
   XX=     0.0135   YY=     0.0135   ZZ=    -0.0270
   XY=     0.0000   XZ=     0.0000   YZ=     0.0000
 Octapole moment (field-independent basis, Debye-Ang**2):
  XXX=     0.0000  YYY=     0.0000  ZZZ=     0.0000  XYY=     0.0000
  XXY=     0.0000  XXZ=    -2.1227  XZZ=     0.0000  YZZ=     0.0000
  YYZ=     2.1227  XYZ=   -20.9825
 Hexadecapole moment (field-independent basis, Debye-Ang**3):
 XXXX=  -308.3721 YYYY=  -308.3721 ZZZZ=   -26.7943 XXXY=     7.4439
 XXXZ=     0.0000 YYYX=    -7.4439 YYYZ=     0.0000 ZZZX=     0.0000
 ZZZY=     0.0000 XXYY=   -92.2476 XXZZ=   -48.6432 YYZZ=   -48.6432
 XXYZ=     0.0000 YYXZ=     0.0000 ZZXY=     0.0000
 N-N= 1.409137711922D+02 E-N=-1.004082265571D+03  KE= 3.036557856594D+02
 Symmetry A    KE= 1.517942443544D+02
 Symmetry B    KE= 1.518615413049D+02
  Exact polarizability:  41.522   0.000  41.522   0.000   0.000  33.917
 Approx polarizability:  28.551   0.000  28.551   0.000   0.000  27.843
 Full mass-weighted force constant matrix:
 Low frequencies ---    0.0017    0.0018    0.0020    5.4192    7.5268    7.5270
 Low frequencies ---   50.9982   79.0952  202.8210
 Diagonal vibrational polarizability:
      126.8001477     126.8002011      46.6200716
 Harmonic frequencies (cm**-1), IR intensities (KM/Mole), Raman scattering
 activities (A**4/AMU), depolarization ratios for plane and unpolarized
 incident light, reduced masses (AMU), force constants (mDyne/A),
 and normal coordinates:
                     1                      2                      3
                     A                      B                      B
 Frequencies --    50.9979                79.0952               202.8210
 Red. masses --     4.7877                 8.4734                 1.0335
 Frc consts  --     0.0073                 0.0312                 0.0250
 IR Inten    --     0.0000                 1.6200                41.5748
 Atom AN      X      Y      Z        X      Y      Z        X      Y      Z
   1   8     0.00   0.00   0.25    -0.24   0.26  -0.01    -0.02   0.00  -0.01
   2   1     0.00   0.00   0.08    -0.22   0.10   0.01    -0.02  -0.01  -0.14
   3   1     0.14  -0.12   0.38    -0.16   0.19   0.07     0.17  -0.34   0.29
   4   8     0.00   0.00  -0.25     0.26   0.24  -0.01     0.00   0.02  -0.01
   5   1     0.00   0.00  -0.08     0.10   0.22   0.01    -0.01   0.02  -0.14
   6   1     0.12   0.14  -0.38     0.19   0.16   0.07    -0.34  -0.17   0.29
   7   8     0.00   0.00   0.25     0.24  -0.26  -0.01     0.02   0.00  -0.01
   8   1     0.00   0.00   0.08     0.22  -0.10   0.01     0.02   0.01  -0.14
   9   1    -0.14   0.12   0.38     0.16  -0.19   0.07    -0.17   0.34   0.29
  10   8     0.00   0.00  -0.25    -0.26  -0.24  -0.01     0.00  -0.02  -0.01
  11   1     0.00   0.00  -0.08    -0.10  -0.22   0.01     0.01  -0.02  -0.14
  12   1    -0.12  -0.14  -0.38    -0.19  -0.16   0.07     0.34   0.17   0.29
                     4                      5                      6
                     A                      E                      E
 Frequencies --   207.3267               236.4125               236.4126
 Red. masses --     5.8922                 1.7577                 1.7577
 Frc consts  --     0.1492                 0.0579                 0.0579
 IR Inten    --     0.0000                29.4629                29.4624
 Atom AN      X      Y      Z        X      Y      Z        X      Y      Z
   1   8     0.20  -0.20  -0.01     0.00   0.09   0.03     0.12  -0.01   0.01
   2   1     0.21  -0.20   0.01     0.00   0.06   0.00     0.14  -0.05   0.17
   3   1     0.16  -0.24  -0.01    -0.03   0.49  -0.24    -0.05   0.25  -0.23
   4   8     0.20   0.20   0.01    -0.01  -0.12   0.01    -0.09   0.00  -0.03
   5   1     0.20   0.21  -0.01    -0.05  -0.14   0.17    -0.06   0.00   0.00
   6   1     0.24   0.16   0.01     0.25   0.05  -0.23    -0.49  -0.03   0.24
   7   8    -0.20   0.20  -0.01     0.00   0.09  -0.03     0.12  -0.01  -0.01
   8   1    -0.21   0.20   0.01     0.00   0.06   0.00     0.14  -0.05  -0.17
   9   1    -0.16   0.24  -0.01    -0.03   0.49   0.24    -0.05   0.25   0.23
  10   8    -0.20  -0.20   0.01    -0.01  -0.12  -0.01    -0.09   0.00   0.03
  11   1    -0.20  -0.21  -0.01    -0.05  -0.14  -0.17    -0.06   0.00   0.00
  12   1    -0.24  -0.16   0.01     0.25   0.05   0.23    -0.49  -0.03  -0.24
                     7                      8                      9
                     E                      E                      B
 Frequencies --   252.9260               252.9260               257.1149
 Red. masses --     1.8841                 1.8841                 5.7851
 Frc consts  --     0.0710                 0.0710                 0.2253
 IR Inten    --   231.4941               231.4945                 0.3457
 Atom AN      X      Y      Z        X      Y      Z        X      Y      Z
   1   8    -0.04   0.13  -0.02    -0.09  -0.06   0.03     0.20   0.20   0.00
   2   1    -0.01  -0.01   0.06    -0.10   0.03   0.18     0.20   0.23  -0.05
   3   1     0.04  -0.18   0.21    -0.35   0.33  -0.34     0.25   0.05   0.11
   4   8     0.06  -0.09  -0.03     0.13   0.04  -0.02     0.20  -0.20   0.00
   5   1    -0.03  -0.10  -0.18    -0.01   0.01   0.06     0.23  -0.20  -0.05
   6   1    -0.33  -0.35   0.34    -0.18  -0.04   0.21     0.05  -0.25   0.11
   7   8    -0.04   0.13   0.02    -0.09  -0.06  -0.03    -0.20  -0.20   0.00
   8   1    -0.01  -0.01  -0.06    -0.10   0.03  -0.18    -0.20  -0.23  -0.05
   9   1     0.04  -0.18  -0.21    -0.35   0.33   0.34    -0.25  -0.05   0.11
  10   8     0.06  -0.09   0.03     0.13   0.04   0.02    -0.20   0.20   0.00
  11   1    -0.03  -0.10   0.18    -0.01   0.01  -0.06    -0.23   0.20  -0.05
  12   1    -0.33  -0.35  -0.34    -0.18  -0.04  -0.21    -0.05   0.25   0.11
                    10                     11                     12
                     A                      A                      B
 Frequencies --   290.5805               400.8564               431.7235
 Red. masses --     1.1443                 1.0767                 1.0176
 Frc consts  --     0.0569                 0.1019                 0.1117
 IR Inten    --     0.0000                 0.0000                21.0861
 Atom AN      X      Y      Z        X      Y      Z        X      Y      Z
   1   8     0.00  -0.03   0.03     0.02   0.00   0.02     0.01   0.00  -0.01
   2   1    -0.01   0.01  -0.16     0.01   0.08   0.31    -0.04   0.32   0.11
   3   1     0.06   0.41  -0.23    -0.34   0.05  -0.16    -0.30  -0.21   0.00
   4   8     0.03   0.00  -0.03     0.00   0.02  -0.02     0.00  -0.01  -0.01
[...]
 Vibration  4             0.641              1.829              2.067
 Vibration  5             0.655              1.785              1.830
 Vibration  6             0.655              1.785              1.830
 Vibration  7             0.664              1.758              1.710
 Vibration  8             0.664              1.758              1.710
 Vibration  9             0.667              1.751              1.681
 Vibration 10             0.687              1.691              1.471
 Vibration 11             0.767              1.468              0.960
 Vibration 12             0.793              1.401              0.853
 Vibration 13             0.807              1.365              0.802
 Vibration 14             0.807              1.365              0.802
                       Q            Log10(Q)             Ln(Q)
 Total Bot       0.600726D-30        -30.221324        -69.587170
 Total V=0       0.118111D+16         15.072291         34.705232
 Vib (Bot)       0.277957D-42        -42.556022        -97.988862
 Vib (Bot)  1    0.405317D+01          0.607795          1.399499
 Vib (Bot)  2    0.260411D+01          0.415659          0.957090
 Vib (Bot)  3    0.982043D+00         -0.007869         -0.018120
 Vib (Bot)  4    0.959008D+00         -0.018178         -0.041856
 Vib (Bot)  5    0.830748D+00         -0.080530         -0.185428
 Vib (Bot)  6    0.830748D+00         -0.080531         -0.185429
 Vib (Bot)  7    0.770581D+00         -0.113182         -0.260611
 Vib (Bot)  8    0.770581D+00         -0.113182         -0.260611
 Vib (Bot)  9    0.756495D+00         -0.121194         -0.279060
 Vib (Bot) 10    0.657900D+00         -0.181840         -0.418703
 Vib (Bot) 11    0.444360D+00         -0.352265         -0.811120
 Vib (Bot) 12    0.403046D+00         -0.394646         -0.908706
 Vib (Bot) 13    0.383423D+00         -0.416322         -0.958617
 Vib (Bot) 14    0.383423D+00         -0.416322         -0.958617
 Vib (V=0)       0.546503D+03          2.737593          6.303540
 Vib (V=0)  1    0.458389D+01          0.661234          1.522548
 Vib (V=0)  2    0.315167D+01          0.498541          1.147934
 Vib (V=0)  3    0.160200D+01          0.204663          0.471254
 Vib (V=0)  4    0.158152D+01          0.199076          0.458389
 Vib (V=0)  5    0.146961D+01          0.167202          0.384997
 Vib (V=0)  6    0.146961D+01          0.167202          0.384997
 Vib (V=0)  7    0.141858D+01          0.151855          0.349658
 Vib (V=0)  8    0.141858D+01          0.151855          0.349658
 Vib (V=0)  9    0.140680D+01          0.148232          0.341317
 Vib (V=0) 10    0.132634D+01          0.122654          0.282421
 Vib (V=0) 11    0.116892D+01          0.067785          0.156082
 Vib (V=0) 12    0.114222D+01          0.057750          0.132973
 Vib (V=0) 13    0.113009D+01          0.053113          0.122297
 Vib (V=0) 14    0.113009D+01          0.053113          0.122297
 Electronic      0.100000D+01          0.000000          0.000000
 Translational   0.240346D+08          7.380836         16.995003
 Rotational      0.899212D+05          4.953862         11.406689
 ***** Axes restored to original set *****
 -------------------------------------------------------------------
 Center     Atomic                   Forces (Hartrees/Bohr)
 Number     Number              X              Y              Z
 -------------------------------------------------------------------
    1          8          -0.000025542    0.000163959   -0.000127246
    2          1           0.000107160   -0.000038079   -0.000082186
    3          1           0.000017001   -0.000031015    0.000091685
    4          8           0.000163959    0.000025542    0.000127246
    5          1          -0.000038079   -0.000107160    0.000082186
    6          1          -0.000031015   -0.000017001   -0.000091685
    7          8           0.000025542   -0.000163959   -0.000127246
    8          1          -0.000107160    0.000038079   -0.000082186
    9          1          -0.000017001    0.000031015    0.000091685
   10          8          -0.000163959   -0.000025542    0.000127246
   11          1           0.000038079    0.000107160    0.000082186
   12          1           0.000031015    0.000017001   -0.000091685
 -------------------------------------------------------------------
 Cartesian Forces:  Max     0.000163959 RMS     0.000090106

 GradGradGradGradGradGradGradGradGradGradGradGradGradGradGradGradGradGrad
 Berny optimization.
 Internal  Forces:  Max     0.000096528 RMS     0.000048370
 Search for a local minimum.
 Step number   1 out of a maximum of   2
 All quantities printed in internal units (Hartrees-Bohrs-Radians)
 Second derivative matrix not updated -- analytic derivatives used.
     Eigenvalues ---    0.00014   0.00019   0.00019   0.00021   0.00260
     Eigenvalues ---    0.00520   0.00520   0.00624   0.00654   0.01024
     Eigenvalues ---    0.01316   0.01570   0.01570   0.01821   0.02164
     Eigenvalues ---    0.02164   0.02475   0.02600   0.07780   0.07780
     Eigenvalues ---    0.08029   0.08791   0.44698   0.44698   0.46205
     Eigenvalues ---    0.47251   0.54091   0.54091   0.54132   0.54145
     Eigenvalues --- 1000.000001000.000001000.000001000.000001000.00000
     Eigenvalues --- 1000.000001000.000001000.000001000.000001000.00000
     Eigenvalues --- 1000.000001000.000001000.000001000.00000
 Angle between quadratic step and forces=  58.48 degrees.
 Linear search not attempted -- first point.
 Iteration  1 RMS(Cart)=  0.00423842 RMS(Int)=  0.00010103
 Iteration  2 RMS(Cart)=  0.00004012 RMS(Int)=  0.00001944
 Iteration  3 RMS(Cart)=  0.00000000 RMS(Int)=  0.00001944
 Variable       Old X    -DE/DX   Delta X   Delta X   Delta X     New X
                                 (Linear)    (Quad)   (Total)
    R1        1.86133   0.00002   0.00000   0.00032   0.00032   1.86164
    R2        1.82391  -0.00006   0.00000  -0.00025  -0.00025   1.82367
    R3        3.36635  -0.00010   0.00000  -0.00783  -0.00783   3.35852
    R4        3.36635  -0.00010   0.00000  -0.00783  -0.00783   3.35852
    R5        1.86133   0.00002   0.00000   0.00032   0.00032   1.86164
    R6        1.82391  -0.00006   0.00000  -0.00025  -0.00025   1.82367
    R7        3.36635  -0.00010   0.00000  -0.00783  -0.00783   3.35852
    R8        1.86133   0.00002   0.00000   0.00032   0.00032   1.86164
    R9        1.82391  -0.00006   0.00000  -0.00025  -0.00025   1.82367
   R10        3.36635  -0.00010   0.00000  -0.00783  -0.00783   3.35852
   R11        1.86133   0.00002   0.00000   0.00032   0.00032   1.86164
   R12        1.82391  -0.00006   0.00000  -0.00025  -0.00025   1.82367
    A1        1.83109  -0.00001   0.00000   0.00103   0.00099   1.83208
    A2        1.78442   0.00002   0.00000   0.00285   0.00282   1.78724
    A3        2.08110   0.00008   0.00000   0.01108   0.01106   2.09215
    A4        2.92767  -0.00002   0.00000  -0.00271  -0.00271   2.92496
    A5        1.83109  -0.00001   0.00000   0.00103   0.00099   1.83208
    A6        1.78442   0.00002   0.00000   0.00285   0.00282   1.78724
    A7        2.08110   0.00008   0.00000   0.01108   0.01106   2.09215
    A8        2.92767  -0.00002   0.00000  -0.00271  -0.00271   2.92496
    A9        1.83109  -0.00001   0.00000   0.00103   0.00099   1.83208
   A10        1.78442   0.00002   0.00000   0.00285   0.00282   1.78724
   A11        2.08110   0.00008   0.00000   0.01108   0.01106   2.09215
   A12        2.92767  -0.00002   0.00000  -0.00271  -0.00271   2.92496
   A13        1.78442   0.00002   0.00000   0.00285   0.00282   1.78724
   A14        2.08110   0.00008   0.00000   0.01108   0.01106   2.09215
   A15        1.83109  -0.00001   0.00000   0.00103   0.00099   1.83208
   A16        2.92767  -0.00002   0.00000  -0.00271  -0.00271   2.92496
    D1        2.13066   0.00006   0.00000   0.02499   0.02499   2.15565
    D2       -0.05274  -0.00004   0.00000   0.01065   0.01065  -0.04209
    D3       -0.04597   0.00002   0.00000   0.01529   0.01532  -0.03065
    D4       -2.05377  -0.00002   0.00000   0.00641   0.00638  -2.04739
    D5        0.04597  -0.00002   0.00000  -0.01529  -0.01532   0.03065
    D6        2.05377   0.00002   0.00000  -0.00641  -0.00638   2.04739
    D7       -2.13066  -0.00006   0.00000  -0.02499  -0.02499  -2.15565
    D8        0.05274   0.00004   0.00000  -0.01065  -0.01065   0.04209
    D9        0.04597  -0.00002   0.00000  -0.01529  -0.01532   0.03065
   D10        2.05377   0.00002   0.00000  -0.00641  -0.00638   2.04739
   D11        2.13066   0.00006   0.00000   0.02499   0.02499   2.15565
   D12       -0.05274  -0.00004   0.00000   0.01065   0.01065  -0.04209
   D13       -0.04597   0.00002   0.00000   0.01529   0.01532  -0.03065
   D14       -2.05377  -0.00002   0.00000   0.00641   0.00638  -2.04739
   D15        0.05274   0.00004   0.00000  -0.01065  -0.01065   0.04209
   D16       -2.13066  -0.00006   0.00000  -0.02499  -0.02499  -2.15565
         Item               Value     Threshold  Converged?
 Maximum Force            0.000097     0.000450     YES
 RMS     Force            0.000048     0.000300     YES
 Maximum Displacement     0.006600     0.001800     NO 
 RMS     Displacement     0.004234     0.001200     NO 
 Predicted change in Energy=-5.843900D-06
 GradGradGradGradGradGradGradGradGradGradGradGradGradGradGradGradGradGrad

 1\1\GINC-POLARIS-C01\Freq\RMP2-FC\Aug-CC-pVDZ\H8O4\G060005\13-Apr-2005
 \0\\#N Geom=AllCheck Guess=Read SCRF=Check GenChk RMP2(FC)/Aug-CC-pVDZ
  Freq\\Title Card Required\\0,1\O,-1.382405,-1.369436,-0.001823\H,-0.4
 07437,-1.509192,0.006831\H,-1.697848,-1.866729,-0.766516\O,-1.369436,1
 .382405,0.001823\H,-1.509192,0.407437,-0.006831\H,-1.866729,1.697848,0
 .766516\O,1.382405,1.369436,-0.001823\H,0.407437,1.509192,0.006831\H,1
 .697848,1.866729,-0.766516\O,1.369436,-1.382405,0.001823\H,1.509192,-0
 .407437,-0.006831\H,1.866729,-1.697848,0.766516\\Version=AM64L-G03RevD
 .01\State=1-A\HF=-304.1930325\MP2=-305.0894271\RMSD=6.748e-10\RMSF=9.0
 11e-05\ZeroPoint=0.0984714\Thermal=0.1083136\Dipole=0.,0.,0.\DipoleDer
 iv=-0.8179616,-0.0556904,-0.0604854,-0.0146097,-0.8111088,0.0698285,-0
 .035669,0.0860409,-0.4247821,0.8390846,0.0459847,0.0798992,0.0236794,0
 .2486355,-0.0288369,0.0679464,-0.0336816,0.2127567,0.2864297,0.0414776
 ,0.0175398,0.0227022,0.2549206,-0.0576852,-0.0033529,-0.0612942,0.2120
 254,-0.8111088,0.0146097,-0.0698285,0.0556904,-0.8179616,-0.0604854,-0
 .0860409,-0.035669,-0.4247821,0.2486355,-0.0236794,0.0288369,-0.045984
 7,0.8390846,0.0798992,0.0336816,0.0679464,0.2127567,0.2549206,-0.02270
 22,0.0576852,-0.0414777,0.2864297,0.0175398,0.0612942,-0.0033529,0.212
 0254,-0.8179615,-0.0556904,0.0604854,-0.0146097,-0.8111088,-0.0698285,
 0.035669,-0.0860409,-0.4247821,0.8390846,0.0459847,-0.0798992,0.023679
 4,0.2486355,0.0288369,-0.0679464,0.0336817,0.2127567,0.2864297,0.04147
 77,-0.0175398,0.0227022,0.2549206,0.0576851,0.0033529,0.0612942,0.2120
 254,-0.8111088,0.0146097,0.0698285,0.0556905,-0.8179616,0.0604853,0.08
 60408,0.035669,-0.4247821,0.2486355,-0.0236794,-0.0288369,-0.0459847,0
 .8390846,-0.0798991,-0.0336816,-0.0679464,0.2127567,0.2549206,-0.02270
 22,-0.0576852,-0.0414777,0.2864297,-0.0175398,-0.0612941,0.0033529,0.2
 120254\Polar=41.5216144,0.0000001,41.5216143,0.,0.,33.9174163\PG=S04 [
 X(H8O4)]\NImag=0\\0.54326065,0.01348882,0.20062867,0.13258027,0.234528
 54,0.36722640,-0.42307578,0.04611239,-0.02302821,0.42753437,0.07792009
 ,-0.03931546,-0.01543609,-0.05566211,0.04820484,0.02290421,-0.02327091
 ,-0.03705268,0.01476385,0.01719441,0.04786356,-0.09239560,-0.05873597,
 -0.10556029,-0.00995119,-0.02580858,-0.03862622,0.10406743,-0.09019569
 ,-0.14838931,-0.21773703,0.00617023,0.00154913,0.00382836,0.08458103,0
 .14736931,-0.15093599,-0.21377342,-0.33105424,0.00704141,-0.00309948,-
 0.00359964,0.14245491,0.21700898,0.33465685,0.00626344,0.00052226,0.00
 019127,-0.00222119,-0.00234937,-0.00036699,-0.00010890,0.00066466,-0.0
 0011380,0.20062866,0.00172397,-0.02042698,-0.00400576,-0.00497162,-0.0
 0078629,-0.00068179,0.00199704,-0.00226361,0.00232423,-0.01348882,0.54
 326065,0.00115833,-0.00395110,0.00499645,-0.00088292,0.00002052,-0.000
 62374,-0.00044159,0.00142778,0.00002094,-0.23452853,0.13258027,0.36722
 639,-0.00956954,-0.00305381,-0.00183551,0.00007623,0.00651748,-0.00010
 611,0.00041742,-0.00219414,0.00072319,-0.03931546,-0.07792009,0.015436
 09,0.04820484,-0.00183905,0.00444846,0.00171248,0.00838093,0.00015593,
 0.00168299,-0.00267696,0.00171496,-0.00259365,-0.04611238,-0.42307578,
 -0.02302821,0.05566211,0.42753437,-0.00321505,0.00539516,-0.00840348,0
 .00131410,0.00015765,0.00088133,0.00090818,-0.00440920,-0.00005096,0.0
 2327091,0.02290421,-0.03705267,-0.01719441,0.01476385,0.04786356,-0.00
 016477,-0.00100602,0.00005603,0.00000794,0.00006716,0.00022403,0.00019
 810,0.00000923,-0.00009422,-0.14838931,0.09019570,0.21773702,0.0015491
 3,-0.00617023,-0.00382836,0.14736930,-0.00061843,-0.00237549,0.0010214
 7,0.00003787,0.00018836,-0.00009590,-0.00012571,-0.00002254,0.00019908
 ,0.05873597,-0.09239560,-0.10556029,0.02580858,-0.00995119,-0.03862622
 ,-0.08458103,0.10406743,-0.00021770,0.00099444,-0.00003976,0.00023188,
 -0.00011242,0.00014261,0.00011628,0.00007672,-0.00003541,0.21377341,-0
 .15093599,-0.33105423,0.00309948,0.00704142,-0.00359964,-0.21700898,0.
 14245491,0.33465685,0.00114987,-0.00261820,0.00014927,-0.00208174,0.00
 079496,-0.00029199,0.00009035,0.00009291,0.00005346,-0.02042698,-0.001
 72397,0.00400577,-0.00078629,0.00497162,0.00068179,-0.00226361,-0.0019
 9704,-0.00232423,0.54326066,-0.00261819,0.00089830,0.00002305,0.003899
 89,0.00046713,0.00008292,0.00022819,0.00013132,0.00010626,-0.00052226,
 0.00626344,0.00019127,0.00234937,-0.00222119,-0.00036699,-0.00066466,-
 0.00010889,-0.00011380,0.01348883,0.20062866,-0.00014928,-0.00002305,0
 .00054243,-0.00007378,0.00006070,-0.00052291,0.00012382,0.00021214,-0.
 00008587,0.00395109,0.00115833,0.00499646,-0.00002052,-0.00088291,-0.0
 0062374,-0.00142777,-0.00044159,0.00002094,-0.13258029,-0.23452854,0.3
 6722639,-0.00208174,0.00389989,0.00007378,0.00344711,-0.00012980,0.000
 27590,-0.00005511,0.00002715,-0.00010774,0.00444846,0.00183905,-0.0017
 1249,0.00015593,-0.00838093,-0.00168299,0.00171496,0.00267696,0.002593
 65,-0.42307579,0.04611238,0.02302822,0.42753438,0.00079496,0.00046713,
 -0.00006070,-0.00012980,-0.00135164,0.00008781,-0.00008031,-0.00003610
 ,-0.00008410,0.00305381,-0.00956954,-0.00183551,-0.00651748,0.00007623
 ,-0.00010611,0.00219414,0.00041742,0.00072319,0.07792009,-0.03931546,0
 .01543609,-0.05566211,0.04820484,0.00029199,-0.00008292,-0.00052291,-0
 .00027590,-0.00008781,0.00043753,-0.00007972,-0.00017934,0.00004705,-0
 .00539515,-0.00321505,-0.00840348,-0.00015766,0.00131410,0.00088133,0.
 00440920,0.00090818,-0.00005096,-0.02290420,0.02327091,-0.03705268,-0.
 01476385,-0.01719441,0.04786356,0.00009035,0.00022819,-0.00012383,-0.0
 0005511,-0.00008031,0.00007972,-0.00005282,-0.00008500,0.00002004,-0.0
 0237549,0.00061843,-0.00102147,0.00018836,-0.00003786,0.00009590,-0.00
 002254,0.00012571,-0.00019908,-0.09239561,-0.05873597,0.10556029,-0.00
 995119,-0.02580858,0.03862622,0.10406743,0.00009290,0.00013132,-0.0002
 1214,0.00002715,-0.00003610,0.00017934,-0.00008500,-0.00009443,0.00004
 256,0.00100602,-0.00016477,0.00005603,-0.00006716,0.00000794,0.0002240
 3,-0.00000922,0.00019809,-0.00009422,-0.09019570,-0.14838931,0.2177370
 3,0.00617024,0.00154913,-0.00382836,0.08458103,0.14736931,-0.00005346,
 -0.00010626,-0.00008587,0.00010774,0.00008410,0.00004705,-0.00002003,-
 0.00004256,0.00003384,-0.00099444,-0.00021770,-0.00003976,0.00011242,0
 .00023187,0.00014261,-0.00007672,0.00011629,-0.00003541,0.15093600,0.2
 1377341,-0.33105423,-0.00704142,0.00309949,-0.00359964,-0.14245491,-0.
 21700898,0.33465685,-0.02042698,-0.00052226,-0.00395110,0.00444847,0.0
 0305381,0.00539516,-0.00237549,0.00100602,0.00099444,0.00089830,0.0026
 1819,-0.00002305,0.00046712,-0.00389989,-0.00008292,0.00013132,-0.0002
 2819,-0.00010626,0.00626344,0.00052226,-0.00019127,-0.00222119,-0.0023
 4937,0.00036700,-0.00010889,0.00066466,0.00011380,0.20062867,-0.001723
 96,0.00626344,-0.00115834,0.00183904,-0.00956954,0.00321505,0.00061843
 ,-0.00016477,0.00021770,0.00261819,0.00114988,0.00014927,-0.00079496,-
 0.00208175,-0.00029199,-0.00009291,0.00009035,0.00005346,0.00172398,-0
 .02042697,0.00400576,-0.00497164,-0.00078629,0.00068179,0.00199704,-0.
 00226362,-0.00232423,-0.01348883,0.54326066,-0.00400577,-0.00019127,0.
 00499645,0.00171249,0.00183551,-0.00840347,0.00102147,-0.00005604,-0.0
 0003976,0.00002305,-0.00014928,0.00054243,-0.00006070,-0.00007378,-0.0
 0052291,-0.00021214,0.00012382,-0.00008587,-0.00115834,0.00395109,0.00
 499646,0.00088292,-0.00002052,-0.00062374,0.00044159,-0.00142777,0.000
 02093,0.23452854,-0.13258030,0.36722640,-0.00078629,0.00234937,0.00002
 052,0.00015593,-0.00651748,0.00015765,0.00018835,-0.00006716,-0.000112
 42,0.00046712,-0.00079497,0.00006070,-0.00135164,0.00012980,-0.0000878
 1,-0.00003610,0.00008031,0.00008410,-0.00956955,-0.00305381,0.00183551
 ,0.00007623,0.00651748,0.00010611,0.00041742,-0.00219414,-0.00072319,-
 0.03931546,-0.07792009,-0.01543608,0.04820484,0.00497162,-0.00222119,0
 .00088292,-0.00838092,0.00007623,-0.00131410,-0.00003787,0.00000794,-0
 .00023188,-0.00389989,-0.00208174,0.00007378,0.00012980,0.00344711,0.0
 0027590,-0.00002715,-0.00005511,-0.00010774,-0.00183906,0.00444846,-0.
 00171248,0.00838094,0.00015593,-0.00168299,-0.00267696,0.00171497,0.00
 259365,-0.04611237,-0.42307579,0.02302823,0.05566211,0.42753438,-0.000
 68179,0.00036699,-0.00062374,0.00168299,0.00010611,0.00088133,-0.00009
 590,-0.00022403,0.00014262,0.00008292,0.00029199,-0.00052291,0.0000878
 1,-0.00027590,0.00043753,0.00017935,-0.00007972,0.00004704,0.00321505,
 -0.00539515,-0.00840348,-0.00131410,-0.00015766,0.00088133,-0.00090818
 ,0.00440920,-0.00005096,-0.02327091,-0.02290420,-0.03705267,0.01719441
 ,-0.01476386,0.04786356,-0.00226361,-0.00066466,0.00142778,0.00171496,
 0.00219414,-0.00440920,-0.00002254,-0.00000922,0.00007672,0.00013132,-
 0.00009290,0.00021214,-0.00003610,-0.00002716,-0.00017935,-0.00009443,
 0.00008500,-0.00004256,-0.00016477,-0.00100602,-0.00005603,0.00000794,
 0.00006716,-0.00022403,0.00019809,0.00000922,0.00009422,-0.14838931,0.
 09019571,-0.21773703,0.00154913,-0.00617024,0.00382835,0.14736931,-0.0
 0199704,-0.00010889,0.00044159,0.00267696,0.00041742,-0.00090818,0.000
 12571,0.00019809,-0.00011629,-0.00022819,0.00009035,-0.00012383,0.0000
 8031,-0.00005511,0.00007972,0.00008500,-0.00005283,0.00002004,-0.00061
 843,-0.00237549,-0.00102147,0.00003787,0.00018835,0.00009590,-0.000125
 71,-0.00002254,-0.00019908,0.05873597,-0.09239561,0.10556029,0.0258085
 8,-0.00995119,0.03862622,-0.08458103,0.10406743,0.00232423,0.00011380,
 0.00002094,-0.00259365,-0.00072319,-0.00005096,0.00019908,0.00009422,-
 0.00003541,0.00010626,-0.00005345,-0.00008587,-0.00008410,0.00010773,0
 .00004704,0.00004256,-0.00002003,0.00003384,0.00021771,-0.00099443,-0.
 00003976,-0.00023188,0.00011242,0.00014261,-0.00011629,-0.00007673,-0.
 00003541,-0.21377342,0.15093601,-0.33105425,-0.00309949,-0.00704143,-0
 .00359964,0.21700899,-0.14245492,0.33465687\\0.00002554,-0.00016396,0.
 00012725,-0.00010716,0.00003808,0.00008219,-0.00001700,0.00003101,-0.0
 0009168,-0.00016396,-0.00002554,-0.00012725,0.00003808,0.00010716,-0.0
 0008219,0.00003101,0.00001700,0.00009168,-0.00002554,0.00016396,0.0001
 2725,0.00010716,-0.00003808,0.00008219,0.00001700,-0.00003101,-0.00009
 168,0.00016396,0.00002554,-0.00012725,-0.00003808,-0.00010716,-0.00008
 219,-0.00003101,-0.00001700,0.00009168\\\@


 BRING ME INTO THE COMPANY OF THOSE WHO SEEK TRUTH,
 AND DELIVER ME FROM THOSE WHO HAVE FOUND IT.
 Job cpu time:  0 days  1 hours 12 minutes 56.0 seconds.
 File lengths (MBytes):  RWF=   3450 Int=      0 D2E=      0 Chk=      8 Scr=      1
 Normal termination of Gaussian 03 at Wed Apr 13 22:56:10 2005.
